 Entering Gaussian System, Link 0=g16
 Initial command:
 /Applications/g16/l1.exe "/Users/mingyu/Desktop/Drug/Gau-46327.inp" -scrdir="/Users/mingyu/Desktop/Drug/"
 Entering Link 1 = /Applications/g16/l1.exe PID=     46328.
  
 Copyright (c) 1988,1990,1992,1993,1995,1998,2003,2009,2016,
            Gaussian, Inc.  All Rights Reserved.
  
 This is part of the Gaussian(R) 16 program.  It is based on
 the Gaussian(R) 09 system (copyright 2009, Gaussian, Inc.),
 the Gaussian(R) 03 system (copyright 2003, Gaussian, Inc.),
 the Gaussian(R) 98 system (copyright 1998, Gaussian, Inc.),
 the Gaussian(R) 94 system (copyright 1995, Gaussian, Inc.),
 the Gaussian 92(TM) system (copyright 1992, Gaussian, Inc.),
 the Gaussian 90(TM) system (copyright 1990, Gaussian, Inc.),
 the Gaussian 88(TM) system (copyright 1988, Gaussian, Inc.),
 the Gaussian 86(TM) system (copyright 1986, Carnegie Mellon
 University), and the Gaussian 82(TM) system (copyright 1983,
 Carnegie Mellon University). Gaussian is a federally registered
 trademark of Gaussian, Inc.
  
 This software contains proprietary and confidential information,
 including trade secrets, belonging to Gaussian, Inc.
  
 This software is provided under written license and may be
 used, copied, transmitted, or stored only in accord with that
 written license.
  
 The following legend is applicable only to US Government
 contracts under FAR:
  
                    RESTRICTED RIGHTS LEGEND
  
 Use, reproduction and disclosure by the US Government is
 subject to restrictions as set forth in subparagraphs (a)
 and (c) of the Commercial Computer Software - Restricted
 Rights clause in FAR 52.227-19.
  
 Gaussian, Inc.
 340 Quinnipiac St., Bldg. 40, Wallingford CT 06492
  
  
 ---------------------------------------------------------------
 Warning -- This program may not be used in any manner that
 competes with the business of Gaussian, Inc. or will provide
 assistance to any competitor of Gaussian, Inc.  The licensee
 of this program is prohibited from giving any competitor of
 Gaussian, Inc. access to this program.  By using this program,
 the user acknowledges that Gaussian, Inc. is engaged in the
 business of creating and licensing software in the field of
 computational chemistry and represents and warrants to the
 licensee that it is not a competitor of Gaussian, Inc. and that
 it will not use this program in any manner prohibited above.
 ---------------------------------------------------------------
  

 Cite this work as:
 Gaussian 16, Revision A.03,
 M. J. Frisch, G. W. Trucks, H. B. Schlegel, G. E. Scuseria, 
 M. A. Robb, J. R. Cheeseman, G. Scalmani, V. Barone, 
 G. A. Petersson, H. Nakatsuji, X. Li, M. Caricato, A. V. Marenich, 
 J. Bloino, B. G. Janesko, R. Gomperts, B. Mennucci, H. P. Hratchian, 
 J. V. Ortiz, A. F. Izmaylov, J. L. Sonnenberg, D. Williams-Young, 
 F. Ding, F. Lipparini, F. Egidi, J. Goings, B. Peng, A. Petrone, 
 T. Henderson, D. Ranasinghe, V. G. Zakrzewski, J. Gao, N. Rega, 
 G. Zheng, W. Liang, M. Hada, M. Ehara, K. Toyota, R. Fukuda, 
 J. Hasegawa, M. Ishida, T. Nakajima, Y. Honda, O. Kitao, H. Nakai, 
 T. Vreven, K. Throssell, J. A. Montgomery, Jr., J. E. Peralta, 
 F. Ogliaro, M. J. Bearpark, J. J. Heyd, E. N. Brothers, K. N. Kudin, 
 V. N. Staroverov, T. A. Keith, R. Kobayashi, J. Normand, 
 K. Raghavachari, A. P. Rendell, J. C. Burant, S. S. Iyengar, 
 J. Tomasi, M. Cossi, J. M. Millam, M. Klene, C. Adamo, R. Cammi, 
 J. W. Ochterski, R. L. Martin, K. Morokuma, O. Farkas, 
 J. B. Foresman, and D. J. Fox, Gaussian, Inc., Wallingford CT, 2016.
 
 ******************************************
 Gaussian 16:  EM64M-G16RevA.03 25-Dec-2016
                10-Mar-2022 
 ******************************************
 %nprocshared=4
 Will use up to    4 processors via shared memory.
 %chk=Vioxx_opt.chk
 -----------------------------------------------------------
 # b3lyp/6-31g scrf=(solvent=water) scf=qc geom=connectivity
 -----------------------------------------------------------
 1/38=1,57=2,172=1/1;
 2/12=2,17=6,18=5,40=1/2;
 3/5=1,6=6,11=2,25=1,30=1,70=2201,72=1,74=-5/1,2,3;
 4//1;
 5/5=2,8=3,38=5,53=1/8;
 6/7=2,8=2,9=2,10=2,28=1/1;
 99/5=1,9=1/99;
 -------
 MODEL 1
 -------
 Symbolic Z-matrix:
 Charge =  0 Multiplicity = 1
 C(PDBName=C1,ResName=RCX,ResNum=1_A)  31.764    22.576    138.184 
 C(PDBName=C2,ResName=RCX,ResNum=1_A)  30.856    21.989    139.141 
 C(PDBName=C3,ResName=RCX,ResNum=1_A)  31.668    21.474    140.165 
 C(PDBName=C4,ResName=RCX,ResNum=1_A)  33.045    22.364    138.729 
 O(PDBName=O5,ResName=RCX,ResNum=1_A)  32.937    21.719    139.883 
 O(PDBName=O6,ResName=RCX,ResNum=1_A)  34.253    22.775    138.153 
 C(PDBName=C7,ResName=RCX,ResNum=1_A)  31.446    23.298    136.844 
 C(PDBName=C8,ResName=RCX,ResNum=1_A)  30.568    22.739    135.919 
 C(PDBName=C9,ResName=RCX,ResNum=1_A)  30.3      23.403    134.707 
 C(PDBName=C10,ResName=RCX,ResNum=1_A)  30.917    24.62     134.422 
 C(PDBName=C11,ResName=RCX,ResNum=1_A)  31.8      25.177    135.345 
 C(PDBName=C12,ResName=RCX,ResNum=1_A)  32.063    24.514    136.554 
 C(PDBName=C13,ResName=RCX,ResNum=1_A)  29.351    21.892    139.11 
 C(PDBName=C14,ResName=RCX,ResNum=1_A)  28.542    22.947    138.699 
 C(PDBName=C15,ResName=RCX,ResNum=1_A)  27.159    22.791    138.707 
 C(PDBName=C16,ResName=RCX,ResNum=1_A)  26.597    21.595    139.122 
 C(PDBName=C17,ResName=RCX,ResNum=1_A)  27.413    20.55     139.536 
 C(PDBName=C18,ResName=RCX,ResNum=1_A)  28.787    20.706    139.535 
 S(PDBName=S19,ResName=RCX,ResNum=1_A)  24.837    21.354    139.148 
 O(PDBName=O20,ResName=RCX,ResNum=1_A)  24.27     21.855    140.455 
 O(PDBName=O21,ResName=RCX,ResNum=1_A)  24.535    19.876    138.981 
 C(PDBName=C22,ResName=RCX,ResNum=1_A)  24.064    22.272    137.832 
 H(PDBName=H,ResName=RCX,ResNum=1_A)  31.517    20.418    140.244 
 H(PDBName=H,ResName=RCX,ResNum=1_A)  31.412    21.94     141.094 
 H(PDBName=H,ResName=RCX,ResNum=1_A)  30.111    21.835    136.122 
 H(PDBName=H,ResName=RCX,ResNum=1_A)  29.645    22.987    134.027 
 H(PDBName=H,ResName=RCX,ResNum=1_A)  30.721    25.106    133.533 
 H(PDBName=H,ResName=RCX,ResNum=1_A)  32.26     26.078    135.139 
 H(PDBName=H,ResName=RCX,ResNum=1_A)  32.719    24.931    137.234 
 H(PDBName=H,ResName=RCX,ResNum=1_A)  28.964    23.837    138.391 
 H(PDBName=H,ResName=RCX,ResNum=1_A)  26.551    23.568    138.402 
 H(PDBName=H,ResName=RCX,ResNum=1_A)  26.994    19.658    139.844 
 H(PDBName=H,ResName=RCX,ResNum=1_A)  29.392    19.933    139.853 
 H(PDBName=H,ResName=RCX,ResNum=1_A)  24.277    23.314    137.951 
 H(PDBName=H,ResName=RCX,ResNum=1_A)  23.006    22.118    137.864 
 H(PDBName=H,ResName=RCX,ResNum=1_A)  24.446    21.935    136.891 
 
 Center=     29.14408333     22.50400000    137.93777778
 Residue   1 PDB Number     1_A RCX charge    0.00000000 layers R        AvRTP=      0.00000000    180.00000000     90.00000000
                          Input orientation:                          
 ---------------------------------------------------------------------
 Center     Atomic      Atomic             Coordinates (Angstroms)
 Number     Number       Type             X           Y           Z
 ---------------------------------------------------------------------
      1          6           0       31.764000   22.576000  138.184000
      2          6           0       30.856000   21.989000  139.141000
      3          6           0       31.668000   21.474000  140.165000
      4          6           0       33.045000   22.364000  138.729000
      5          8           0       32.937000   21.719000  139.883000
      6          8           0       34.253000   22.775000  138.153000
      7          6           0       31.446000   23.298000  136.844000
      8          6           0       30.568000   22.739000  135.919000
      9          6           0       30.300000   23.403000  134.707000
     10          6           0       30.917000   24.620000  134.422000
     11          6           0       31.800000   25.177000  135.345000
     12          6           0       32.063000   24.514000  136.554000
     13          6           0       29.351000   21.892000  139.110000
     14          6           0       28.542000   22.947000  138.699000
     15          6           0       27.159000   22.791000  138.707000
     16          6           0       26.597000   21.595000  139.122000
     17          6           0       27.413000   20.550000  139.536000
     18          6           0       28.787000   20.706000  139.535000
     19         16           0       24.837000   21.354000  139.148000
     20          8           0       24.270000   21.855000  140.455000
     21          8           0       24.535000   19.876000  138.981000
     22          6           0       24.064000   22.272000  137.832000
     23          1           0       31.517000   20.418000  140.244000
     24          1           0       31.412000   21.940000  141.094000
     25          1           0       30.111000   21.835000  136.122000
     26          1           0       29.645000   22.987000  134.027000
     27          1           0       30.721000   25.106000  133.533000
     28          1           0       32.260000   26.078000  135.139000
     29          1           0       32.719000   24.931000  137.234000
     30          1           0       28.964000   23.837000  138.391000
     31          1           0       26.551000   23.568000  138.402000
     32          1           0       26.994000   19.658000  139.844000
     33          1           0       29.392000   19.933000  139.853000
     34          1           0       24.277000   23.314000  137.951000
     35          1           0       23.006000   22.118000  137.864000
     36          1           0       24.446000   21.935000  136.891000
 ---------------------------------------------------------------------
                    Distance matrix (angstroms):
                    1          2          3          4          5
     1  C    0.000000
     2  C    1.443912   0.000000
     3  C    2.268916   1.404687   0.000000
     4  C    1.408165   2.258781   2.179524   0.000000
     5  O    2.235392   2.225764   1.322842   1.326426   0.000000
     6  O    2.497135   3.624024   3.524623   1.399986   2.416587
     7  C    1.554995   2.708836   3.795432   2.642420   3.735217
     8  C    2.566556   3.320652   4.564947   3.764605   4.729255
     9  C    3.862221   4.687098   5.948296   4.979059   6.048190
    10  C    4.364400   5.403225   6.591158   5.307369   6.505284
    11  C    3.850509   5.046196   6.079641   4.573232   5.817558
    12  C    2.549930   3.811173   4.736765   3.212079   4.433750
    13  C    2.673556   1.508441   2.579969   3.743472   3.672445
    14  C    3.283923   2.543172   3.753766   4.540683   4.714432
    15  C    4.639588   3.807804   4.918469   5.901509   5.993116
    16  C    5.342293   4.277228   5.178565   6.505576   6.386713
    17  C    4.986359   3.752465   4.399368   5.971706   5.656991
    18  C    3.766249   2.466189   3.047439   4.639953   4.285997
    19  S    7.099712   6.052407   6.907333   8.280515   8.141465
    20  O    7.863671   6.717138   7.413479   8.957610   8.686919
    21  O    7.757812   6.666739   7.405076   8.869822   8.648922
    22  C    7.714034   6.922776   7.993779   9.026153   9.123735
    23  H    2.993589   2.030165   1.069663   2.901194   1.959419
    24  H    2.999417   2.031193   1.070389   2.905114   1.959844
    25  H    2.744692   3.113375   4.347461   3.960385   4.705832
    26  H    4.683987   5.349348   6.637525   5.835832   6.836507
    27  H    5.396346   6.417443   7.620476   6.318066   7.530267
    28  H    4.667124   5.891277   6.841634   5.224760   6.478020
    29  H    2.713033   3.970237   4.652549   2.988443   4.169133
    30  H    3.077819   2.749049   4.005304   4.351843   4.743070
    31  H    5.311022   4.644608   5.803162   6.612759   6.811252
    32  H    5.832943   4.565393   5.024657   6.721626   6.290349
    33  H    3.923951   2.622475   2.766261   4.529630   3.969600
    34  H    7.526892   6.815788   7.931852   8.853565   9.015112
    35  H    8.775804   7.954236   8.985521  10.079199  10.142008
    36  H    7.458945   6.793638   7.942851   8.803697   9.005321
                    6          7          8          9         10
     6  O    0.000000
     7  C    3.141060   0.000000
     8  C    4.309440   1.392476   0.000000
     9  C    5.281620   2.427161   1.407716   0.000000
    10  C    5.334162   2.809557   2.429191   1.393916   0.000000
    11  C    4.435276   2.429600   2.791262   2.409174   1.393509
    12  C    3.221339   1.394075   2.406008   2.784582   2.422803
    13  C    5.071996   3.391256   3.518662   4.750803   5.645501
    14  C    5.739619   3.463732   3.446207   4.385723   5.170327
    15  C    7.115617   4.701722   4.404194   5.122541   5.985736
    16  C    7.806773   5.621592   5.228459   6.039313   7.064207
    17  C    7.324542   5.573460   5.275266   6.308218   7.415923
    18  C    6.005651   4.585872   4.514477   5.733460   6.782261
    19  S    9.574462   7.264051   6.722278   7.332479   8.364702
    20  O   10.286199   8.161896   7.811630   8.473294   9.392812
    21  O   10.174935   8.002423   7.346407   7.996376   9.166239
    22  C   10.206457   7.518161   6.795563   7.066292   8.006548
    23  H    4.172940   4.456393   4.999327   6.407003   7.205032
    24  H    4.173486   4.461818   5.303901   6.646103   7.207150
    25  H    4.707943   2.108051   1.033090   2.120512   3.360932
    26  H    6.188900   3.357947   2.119693   1.031737   2.107296
    27  H    6.265220   3.841511   3.364386   2.110859   1.031956
    28  H    4.895514   3.361253   3.823635   3.344226   2.107962
    29  H    2.801081   2.106969   3.340792   3.817339   3.354291
    30  H    5.399816   2.973895   3.144710   3.942728   4.492244
    31  H    7.746719   5.144054   4.794666   5.266427   6.000755
    32  H    8.078877   6.486132   6.137724   7.165433   8.331234
    33  H    5.881861   4.959458   4.973225   6.272693   7.334123
    34  H    9.992592   7.253983   6.635987   6.841636   7.632108
    35  H   11.269879   8.582913   7.832784   8.051106   8.982833
    36  H    9.923482   7.131618   6.250607   6.418270   7.428259
                   11         12         13         14         15
    11  C    0.000000
    12  C    1.403716   0.000000
    13  C    5.564535   4.556640   0.000000
    14  C    5.180423   4.410664   1.391556   0.000000
    15  C    6.207650   5.626131   2.403222   1.391793   0.000000
    16  C    7.359868   6.707633   2.769994   2.406212   1.385094
    17  C    7.630162   6.799126   2.395472   2.778636   2.402881
    18  C    6.828185   5.841181   1.380332   2.404371   2.771857
    19  S    8.806901   8.302380   4.546106   4.057866   2.766068
    20  O    9.687553   9.111472   5.256135   4.746155   3.503986
    21  O    9.700584   9.169087   5.222524   5.056344   3.931625
    22  C    8.629594   8.404990   5.452527   4.610835   3.257915
    23  H    6.835815   5.539985   2.854853   4.199225   5.194773
    24  H    6.609063   5.259361   2.861168   3.871301   4.950755
    25  H    3.824319   3.342749   3.083666   3.215468   4.038622
    26  H    3.343239   3.816305   5.207912   4.800603   5.302925
    27  H    2.110125   3.358254   6.581005   6.008068   6.694576
    28  H    1.032394   2.118285   6.461712   6.024972   7.039545
    29  H    2.115041   1.032775   4.909004   4.850754   6.137013
    30  H    4.372255   3.665610   2.109444   1.032012   2.109976
    31  H    6.283799   5.890005   3.339198   2.106640   1.032675
    32  H    8.590576   7.752393   3.329409   3.811148   3.337017
    33  H    7.322572   6.245254   2.095569   3.337426   3.803652
    34  H    8.176646   8.000838   5.395446   4.345621   3.025060
    35  H    9.645583   9.459713   6.470133   5.659661   4.290803
    36  H    8.184253   8.048820   5.383757   4.590231   3.375050
                   16         17         18         19         20
    16  C    0.000000
    17  C    1.388984   0.000000
    18  C    2.399373   1.382828   0.000000
    19  S    1.776614   2.726304   4.021464   0.000000
    20  O    2.694331   3.525058   4.750778   1.510212   0.000000
    21  O    2.688250   3.007521   4.367530   1.517754   2.481802
    22  C    2.922074   4.133364   5.259210   1.781042   2.663917
    23  H    5.181758   4.166714   2.835229   6.833719   7.391109
    24  H    5.214598   4.511260   3.293002   6.881928   7.171033
    25  H    4.626640   4.537160   3.830951   6.099435   7.272728
    26  H    6.098114   6.424163   6.023055   7.211671   8.455249
    27  H    7.782764   8.230189   7.689237   8.956963  10.004923
    28  H    8.248100   8.566551   7.761761   9.668981  10.484927
    29  H    7.223041   7.255756   6.213361   8.864776   9.551032
    30  H    3.341199   3.810642   3.338147   4.875497   5.497459
    31  H    2.100772   3.337263   3.804527   2.897604   3.514561
    32  H    2.104961   1.032516   2.099675   2.830809   3.552507
    33  H    3.332961   2.097050   1.031832   4.823307   5.503760
    34  H    3.115863   4.470617   5.445257   2.363897   2.898059
    35  H    3.840752   4.967480   6.181096   2.363242   2.894848
    36  H    3.117653   4.209197   5.229288   2.363153   3.569240
                   21         22         23         24         25
    21  O    0.000000
    22  C    2.698677   0.000000
    23  H    7.115986   8.049986   0.000000
    24  H    7.484517   8.046364   1.746427   0.000000
    25  H    6.565313   6.299308   4.579914   5.140468   0.000000
    26  H    7.767402   6.792408   6.982495   7.359415   2.435834
    27  H    9.762182   8.415973   8.224870   8.226163   4.215977
    28  H   10.625507   9.429332   7.658242   7.300971   4.856700
    29  H    9.776650   9.073969   5.556264   5.055090   4.198026
    30  H    5.971069   5.174138   4.651987   4.110660   3.236043
    31  H    4.246217   2.861763   6.162517   5.790213   4.568948
    32  H    2.615143   4.412034   4.603817   5.127255   5.320555
    33  H    4.934986   6.159785   2.214437   3.106208   4.249109
    34  H    3.598237   1.070184   8.127870   7.916726   6.290329
    35  H    2.934637   1.069628   8.999529   9.006965   7.320907
    36  H    2.935218   1.070035   7.971383   8.135748   5.717831
                   26         27         28         29         30
    26  H    0.000000
    27  H    2.427339   0.000000
    28  H    4.198696   2.427456   0.000000
    29  H    4.849068   4.209517   2.432142   0.000000
    30  H    4.497861   5.319546   5.144045   4.078665   0.000000
    31  H    5.389900   6.592534   7.038462   6.423879   2.427973
    32  H    7.207464   9.132358   9.543803   8.209279   4.843155
    33  H    6.582796   8.274574   8.258828   6.550427   4.190685
    34  H    6.657336   8.015929   8.903669   8.625320   4.736570
    35  H    7.717127   9.338465  10.428027  10.131744   6.223380
    36  H    6.028167   7.791472   9.016238   8.805464   5.126395
                   31         32         33         34         35
    31  H    0.000000
    32  H    4.190908   0.000000
    33  H    4.836311   2.413734   0.000000
    34  H    2.332165   4.932735   6.419657   0.000000
    35  H    3.867683   5.086860   7.036430   1.747406   0.000000
    36  H    3.062815   4.516331   6.102816   1.747513   1.747518
                   36
    36  H    0.000000
 Stoichiometry    C17H14O4S
 Framework group  C1[X(C17H14O4S)]
 Deg. of freedom   102
 Full point group                 C1      NOp   1
 Largest Abelian subgroup         C1      NOp   1
 Largest concise Abelian subgroup C1      NOp   1
                         Standard orientation:                         
 ---------------------------------------------------------------------
 Center     Atomic      Atomic             Coordinates (Angstroms)
 Number     Number       Type             X           Y           Z
 ---------------------------------------------------------------------
      1          6           0       -2.608873   -0.769654    0.015796
      2          6           0       -1.374561   -1.513614   -0.072971
      3          6           0       -1.751378   -2.866108   -0.116719
      4          6           0       -3.619371   -1.750362    0.009922
      5          8           0       -3.070349   -2.955250   -0.068984
      6          8           0       -4.995780   -1.501445    0.069074
      7          6           0       -2.824652    0.768325    0.093708
      8          6           0       -2.094480    1.550682    0.984638
      9          6           0       -2.310741    2.940267    1.047476
     10          6           0       -3.261736    3.540617    0.223953
     11          6           0       -3.996590    2.757213   -0.663817
     12          6           0       -3.776645    1.372244   -0.726314
     13          6           0        0.050511   -1.019734   -0.098394
     14          6           0        0.443117    0.093325   -0.835542
     15          6           0        1.778379    0.485727   -0.821950
     16          6           0        2.705079   -0.228641   -0.080741
     17          6           0        2.304183   -1.341752    0.646958
     18          6           0        0.979090   -1.736738    0.628904
     19         16           0        4.418827    0.237651   -0.036055
     20          8           0        5.150817   -0.387013   -1.199981
     21          8           0        5.027177   -0.229246    1.273713
     22          6           0        4.586205    2.005475   -0.173499
     23          1           0       -1.327920   -3.382376    0.718941
     24          1           0       -1.396007   -3.307978   -1.024572
     25          1           0       -1.391470    1.111328    1.601095
     26          1           0       -1.763769    3.516259    1.705910
     27          1           0       -3.420645    4.559180    0.270971
     28          1           0       -4.702410    3.196536   -1.275903
     29          1           0       -4.324802    0.796387   -1.385508
     30          1           0       -0.249826    0.622959   -1.387236
     31          1           0        2.078355    1.311517   -1.364631
     32          1           0        2.994815   -1.873366    1.200585
     33          1           0        0.684168   -2.570115    1.161054
     34          1           0        4.157547    2.333588   -1.097560
     35          1           0        5.622750    2.268175   -0.147650
     36          1           0        4.077848    2.475503    0.642357
 ---------------------------------------------------------------------
 Rotational constants (GHZ):           0.4569198           0.1353450           0.1104559
 Standard basis: 6-31G (6D, 7F)
 There are   230 symmetry adapted cartesian basis functions of A   symmetry.
 There are   230 symmetry adapted basis functions of A   symmetry.
   230 basis functions,   564 primitive gaussians,   230 cartesian basis functions
    82 alpha electrons       82 beta electrons
       nuclear repulsion energy      1827.4826465105 Hartrees.



 Warning!  S  atom   19 may be hypervalent but has no d functions.



 NAtoms=   36 NActive=   36 NUniq=   36 SFac= 1.00D+00 NAtFMM=   60 NAOKFM=F Big=F
 Integral buffers will be    131072 words long.
 Raffenetti 2 integral format.
 Two-electron integral symmetry is turned on.
 ------------------------------------------------------------------------------
 Polarizable Continuum Model (PCM)
 =================================
 Model                : PCM.
 Atomic radii         : UFF (Universal Force Field).
 Polarization charges : Total charges.
 Charge compensation  : None.
 Solution method      : On-the-fly selection.
 Cavity type          : Scaled VdW (van der Waals Surface) (Alpha=1.100).
 Cavity algorithm     : GePol (No added spheres)
                        Default sphere list used, NSphG=   36.
                        Lebedev-Laikov grids with approx.  5.0 points / Ang**2.
                        Smoothing algorithm: York/Karplus (Gamma=1.0000).
                        Polarization charges: spherical gaussians, with
                                              point-specific exponents (IZeta= 3).
                        Self-potential: point-specific (ISelfS= 7).
                        Self-field    : sphere-specific E.n sum rule (ISelfD= 2).
 Solvent              : Water, Eps=  78.355300 Eps(inf)=   1.777849
 ------------------------------------------------------------------------------
 One-electron integrals computed using PRISM.
 NBasis=   230 RedAO= T EigKep=  5.51D-04  NBF=   230
 NBsUse=   230 1.00D-06 EigRej= -1.00D+00 NBFU=   230
 ExpMin= 1.17D-01 ExpMax= 2.19D+04 ExpMxC= 3.30D+03 IAcc=3 IRadAn=         5 AccDes= 0.00D+00
 Harris functional with IExCor=  402 and IRadAn=       5 diagonalized for initial guess.
 HarFok:  IExCor=  402 AccDes= 0.00D+00 IRadAn=         5 IDoV= 1 UseB2=F ITyADJ=14
 ICtDFT=  3500011 ScaDFX=  1.000000  1.000000  1.000000  1.000000
 FoFCou: FMM=F IPFlag=           0 FMFlag=      100000 FMFlg1=           0
         NFxFlg=           0 DoJE=T BraDBF=F KetDBF=T FulRan=T
         wScrn=  0.000000 ICntrl=       500 IOpCl=  0 I1Cent=   200000004 NGrid=           0
         NMat0=    1 NMatS0=      1 NMatT0=    0 NMatD0=    1 NMtDS0=    0 NMtDT0=    0
 Petite list used in FoFCou.
 Inv3:  Mode=1 IEnd=    25895532.
 Iteration    1 A*A^-1 deviation from unit magnitude is 7.66D-15 for   2924.
 Iteration    1 A*A^-1 deviation from orthogonality  is 4.01D-15 for   2934   1429.
 Iteration    1 A^-1*A deviation from unit magnitude is 7.66D-15 for   2924.
 Iteration    1 A^-1*A deviation from orthogonality  is 1.83D-15 for   2861   2784.
 Gradient too large for Newton-Raphson -- use scaled steepest descent instead.
     Accept linear search using points  2 and  3.
 Gradient too large for Newton-Raphson -- use scaled steepest descent instead.
     Accept linear search using points  2 and  3.
 Gradient too large for Newton-Raphson -- use scaled steepest descent instead.
 Gradient too large for Newton-Raphson -- use scaled steepest descent instead.
     Accept linear search using points  1 and  2.
 Gradient too large for Newton-Raphson -- use scaled steepest descent instead.
     Accept linear search using points  2 and  3.
 Gradient too large for Newton-Raphson -- use scaled steepest descent instead.
     Accept linear search using points  1 and  2.
 LinEq1:  Iter=  0 NonCon=     1 RMS=7.85D-05 Max=4.01D-03 NDo=     1
 AX will form     1 AO Fock derivatives at one time.
 LinEq1:  Iter=  1 NonCon=     1 RMS=9.24D-05 Max=3.44D-03 NDo=     1
 LinEq1:  Iter=  2 NonCon=     1 RMS=2.29D-05 Max=5.68D-04 NDo=     1
 LinEq1:  Iter=  3 NonCon=     1 RMS=1.98D-05 Max=5.51D-04 NDo=     1
 LinEq1:  Iter=  4 NonCon=     1 RMS=1.07D-05 Max=2.30D-04 NDo=     1
 LinEq1:  Iter=  5 NonCon=     1 RMS=4.93D-06 Max=2.07D-04 NDo=     1
 LinEq1:  Iter=  6 NonCon=     1 RMS=4.46D-06 Max=1.83D-04 NDo=     1
 LinEq1:  Iter=  7 NonCon=     1 RMS=2.28D-06 Max=6.57D-05 NDo=     1
 LinEq1:  Iter=  8 NonCon=     1 RMS=1.38D-06 Max=3.34D-05 NDo=     1
 LinEq1:  Iter=  9 NonCon=     1 RMS=9.61D-07 Max=1.68D-05 NDo=     1
 LinEq1:  Iter= 10 NonCon=     1 RMS=6.04D-07 Max=1.43D-05 NDo=     1
 LinEq1:  Iter= 11 NonCon=     1 RMS=3.57D-07 Max=7.47D-06 NDo=     1
 LinEq1:  Iter= 12 NonCon=     1 RMS=1.87D-07 Max=6.36D-06 NDo=     1
 LinEq1:  Iter= 13 NonCon=     1 RMS=8.11D-08 Max=1.61D-06 NDo=     1
 LinEq1:  Iter= 14 NonCon=     1 RMS=5.01D-08 Max=1.32D-06 NDo=     1
 LinEq1:  Iter= 15 NonCon=     1 RMS=1.71D-08 Max=4.58D-07 NDo=     1
 LinEq1:  Iter= 16 NonCon=     1 RMS=1.36D-08 Max=4.08D-07 NDo=     1
 LinEq1:  Iter= 17 NonCon=     0 RMS=4.44D-09 Max=1.30D-07 NDo=     1
 Linear equations converged to 1.558D-08 1.558D-07 after    17 iterations.
     Accept linear search using points  1 and  2.
     Minimum is close to point  2 DX= -9.76D-04 DF= -4.87D-11 DXR=  9.77D-04 DFR=  9.53D-07 which will be used.
 LinEq1:  Iter=  0 NonCon=     1 RMS=2.49D-07 Max=9.05D-06 NDo=     1
 LinEq1:  Iter=  1 NonCon=     1 RMS=2.43D-07 Max=1.29D-05 NDo=     1
 LinEq1:  Iter=  2 NonCon=     1 RMS=1.65D-07 Max=5.96D-06 NDo=     1
 LinEq1:  Iter=  3 NonCon=     1 RMS=8.99D-08 Max=3.96D-06 NDo=     1
 LinEq1:  Iter=  4 NonCon=     1 RMS=7.81D-08 Max=3.61D-06 NDo=     1
 LinEq1:  Iter=  5 NonCon=     1 RMS=3.16D-08 Max=7.29D-07 NDo=     1
 LinEq1:  Iter=  6 NonCon=     1 RMS=2.28D-08 Max=4.96D-07 NDo=     1
 LinEq1:  Iter=  7 NonCon=     1 RMS=1.53D-08 Max=2.46D-07 NDo=     1
 LinEq1:  Iter=  8 NonCon=     1 RMS=9.31D-09 Max=1.64D-07 NDo=     1
 LinEq1:  Iter=  9 NonCon=     1 RMS=5.83D-09 Max=1.47D-07 NDo=     1
 LinEq1:  Iter= 10 NonCon=     1 RMS=4.54D-09 Max=1.28D-07 NDo=     1
 LinEq1:  Iter= 11 NonCon=     1 RMS=1.78D-09 Max=2.99D-08 NDo=     1
 LinEq1:  Iter= 12 NonCon=     1 RMS=1.19D-09 Max=3.02D-08 NDo=     1
 LinEq1:  Iter= 13 NonCon=     1 RMS=5.67D-10 Max=1.14D-08 NDo=     1
 LinEq1:  Iter= 14 NonCon=     1 RMS=2.63D-10 Max=8.33D-09 NDo=     1
 LinEq1:  Iter= 15 NonCon=     1 RMS=1.95D-10 Max=5.66D-09 NDo=     1
 LinEq1:  Iter= 16 NonCon=     1 RMS=5.32D-11 Max=1.59D-09 NDo=     1
 LinEq1:  Iter= 17 NonCon=     0 RMS=3.17D-11 Max=5.42D-10 NDo=     1
 Linear equations converged to 1.511D-10 1.511D-09 after    17 iterations.
 Error on total polarization charges =  0.00842
 SCF Done:  E(RB3LYP) =  -1354.76529245     a.u. after    9 cycles
            Convg  =    0.3743D-09                    53 Fock formations.
              S**2 =  0.0000                  -V/T =  2.0031

 **********************************************************************

            Population analysis using the SCF density.

 **********************************************************************

 Orbital symmetries:
       Occupied  (A) (A) (A) (A) (A) (A) (A) (A) (A) (A) (A) (A)
                 (A) (A) (A) (A) (A) (A) (A) (A) (A) (A) (A) (A)
                 (A) (A) (A) (A) (A) (A) (A) (A) (A) (A) (A) (A)
                 (A) (A) (A) (A) (A) (A) (A) (A) (A) (A) (A) (A)
                 (A) (A) (A) (A) (A) (A) (A) (A) (A) (A) (A) (A)
                 (A) (A) (A) (A) (A) (A) (A) (A) (A) (A) (A) (A)
                 (A) (A) (A) (A) (A) (A) (A) (A) (A) (A)
       Virtual   (A) (A) (A) (A) (A) (A) (A) (A) (A) (A) (A) (A)
                 (A) (A) (A) (A) (A) (A) (A) (A) (A) (A) (A) (A)
                 (A) (A) (A) (A) (A) (A) (A) (A) (A) (A) (A) (A)
                 (A) (A) (A) (A) (A) (A) (A) (A) (A) (A) (A) (A)
                 (A) (A) (A) (A) (A) (A) (A) (A) (A) (A) (A) (A)
                 (A) (A) (A) (A) (A) (A) (A) (A) (A) (A) (A) (A)
                 (A) (A) (A) (A) (A) (A) (A) (A) (A) (A) (A) (A)
                 (A) (A) (A) (A) (A) (A) (A) (A) (A) (A) (A) (A)
                 (A) (A) (A) (A) (A) (A) (A) (A) (A) (A) (A) (A)
                 (A) (A) (A) (A) (A) (A) (A) (A) (A) (A) (A) (A)
                 (A) (A) (A) (A) (A) (A) (A) (A) (A) (A) (A) (A)
                 (A) (A) (A) (A) (A) (A) (A) (A) (A) (A) (A) (A)
                 (A) (A) (A) (A)
 The electronic state is 1-A.
 Alpha  occ. eigenvalues --  -89.11410 -19.22674 -19.14149 -19.13810 -19.13223
 Alpha  occ. eigenvalues --  -10.33460 -10.26272 -10.25661 -10.25470 -10.24126
 Alpha  occ. eigenvalues --  -10.23924 -10.23364 -10.22760 -10.22405 -10.21875
 Alpha  occ. eigenvalues --  -10.21738 -10.21641 -10.19131 -10.18912 -10.18796
 Alpha  occ. eigenvalues --  -10.18711 -10.18641  -8.18742  -6.14921  -6.14752
 Alpha  occ. eigenvalues --   -6.14595  -1.18957  -1.13805  -1.00491  -0.96104
 Alpha  occ. eigenvalues --   -0.91734  -0.87686  -0.86075  -0.83222  -0.80315
 Alpha  occ. eigenvalues --   -0.79758  -0.78928  -0.75900  -0.75755  -0.70865
 Alpha  occ. eigenvalues --   -0.66581  -0.64907  -0.62775  -0.62324  -0.60576
 Alpha  occ. eigenvalues --   -0.58912  -0.57041  -0.55388  -0.55104  -0.52486
 Alpha  occ. eigenvalues --   -0.51367  -0.50463  -0.49498  -0.48996  -0.48310
 Alpha  occ. eigenvalues --   -0.47095  -0.46891  -0.46005  -0.45056  -0.43887
 Alpha  occ. eigenvalues --   -0.43518  -0.43063  -0.42803  -0.41434  -0.40635
 Alpha  occ. eigenvalues --   -0.39947  -0.39335  -0.38563  -0.37196  -0.35795
 Alpha  occ. eigenvalues --   -0.35747  -0.33574  -0.32112  -0.30909  -0.30069
 Alpha  occ. eigenvalues --   -0.29486  -0.29010  -0.28338  -0.27361  -0.26491
 Alpha  occ. eigenvalues --   -0.25547  -0.24477
 Alpha virt. eigenvalues --   -0.09613  -0.03743  -0.03572  -0.01390  -0.00684
 Alpha virt. eigenvalues --    0.02314   0.05202   0.05794   0.07835   0.08413
 Alpha virt. eigenvalues --    0.09238   0.10133   0.10876   0.11939   0.12872
 Alpha virt. eigenvalues --    0.13529   0.14512   0.15110   0.15340   0.15540
 Alpha virt. eigenvalues --    0.15983   0.16427   0.16775   0.18723   0.19876
 Alpha virt. eigenvalues --    0.20531   0.21472   0.22248   0.23344   0.24763
 Alpha virt. eigenvalues --    0.25372   0.28053   0.29357   0.29809   0.30351
 Alpha virt. eigenvalues --    0.30754   0.31235   0.32503   0.33567   0.34357
 Alpha virt. eigenvalues --    0.36226   0.36261   0.38387   0.38651   0.41945
 Alpha virt. eigenvalues --    0.46260   0.46568   0.48754   0.49195   0.49775
 Alpha virt. eigenvalues --    0.51887   0.52451   0.53225   0.54041   0.55264
 Alpha virt. eigenvalues --    0.55461   0.56193   0.56717   0.57241   0.57559
 Alpha virt. eigenvalues --    0.58316   0.58420   0.59098   0.59603   0.59762
 Alpha virt. eigenvalues --    0.60546   0.61455   0.62067   0.62371   0.62805
 Alpha virt. eigenvalues --    0.63688   0.64003   0.64844   0.65293   0.65921
 Alpha virt. eigenvalues --    0.66994   0.68558   0.70113   0.70396   0.73143
 Alpha virt. eigenvalues --    0.75214   0.75498   0.77548   0.77868   0.81217
 Alpha virt. eigenvalues --    0.83455   0.84531   0.85611   0.87225   0.87812
 Alpha virt. eigenvalues --    0.88025   0.88464   0.89571   0.90242   0.90635
 Alpha virt. eigenvalues --    0.91024   0.91868   0.92365   0.93378   0.94371
 Alpha virt. eigenvalues --    0.94592   0.95573   0.96131   0.96853   0.98151
 Alpha virt. eigenvalues --    0.98613   0.99691   1.00580   1.00657   1.01244
 Alpha virt. eigenvalues --    1.02687   1.04090   1.04384   1.05460   1.06331
 Alpha virt. eigenvalues --    1.07679   1.09006   1.10773   1.11947   1.12869
 Alpha virt. eigenvalues --    1.14848   1.16600   1.16681   1.17224   1.18615
 Alpha virt. eigenvalues --    1.19805   1.20838   1.21626   1.23799   1.24546
 Alpha virt. eigenvalues --    1.25267   1.27329   1.30407   1.30890   1.34385
 Alpha virt. eigenvalues --    1.42762   1.44038   1.46202   1.46791   1.50777
 Alpha virt. eigenvalues --    1.52494   1.55570   1.59968   1.81118   1.89674
 Alpha virt. eigenvalues --    1.91423   1.94091   2.10527
          Condensed to atoms (all electrons):
               1          2          3          4          5          6
     1  C    5.553531   0.432595  -0.038430   0.107900  -0.145974  -0.095656
     2  C    0.432595   5.324583   0.268594   0.014945  -0.044619   0.003291
     3  C   -0.038430   0.268594   5.140713  -0.102619   0.167927   0.001972
     4  C    0.107900   0.014945  -0.102619   4.942192   0.144187   0.476176
     5  O   -0.145974  -0.044619   0.167927   0.144187   8.440638  -0.058728
     6  O   -0.095656   0.003291   0.001972   0.476176  -0.058728   8.240504
     7  C    0.292242  -0.045890   0.009094  -0.058720   0.003363  -0.001221
     8  C   -0.031209  -0.004654   0.000049   0.002174  -0.000065  -0.000068
     9  C    0.006631   0.000329   0.000002  -0.000115   0.000000  -0.000001
    10  C    0.000568   0.000013  -0.000000   0.000007   0.000000   0.000001
    11  C    0.006668  -0.000094   0.000002   0.000378  -0.000000  -0.000004
    12  C   -0.034524   0.003124  -0.000249  -0.002485   0.000073  -0.000242
    13  C   -0.028394   0.244010  -0.053955   0.011607   0.005598  -0.000028
    14  C   -0.005898  -0.035175   0.003101   0.000084  -0.000058  -0.000000
    15  C    0.000373   0.009607  -0.000192  -0.000002   0.000000  -0.000000
    16  C    0.000020   0.000157  -0.000011   0.000000   0.000000  -0.000000
    17  C   -0.000144   0.009986   0.000537   0.000000  -0.000003  -0.000000
    18  C    0.003316  -0.043456  -0.004774  -0.000301  -0.000061   0.000000
    19  S    0.000001  -0.000029  -0.000000   0.000000   0.000000  -0.000000
    20  O    0.000000  -0.000000  -0.000000  -0.000000   0.000000   0.000000
    21  O    0.000000  -0.000000  -0.000000  -0.000000   0.000000  -0.000000
    22  C   -0.000000  -0.000000   0.000000   0.000000  -0.000000   0.000000
    23  H   -0.004025  -0.041195   0.360806   0.001004  -0.038222   0.000024
    24  H   -0.005343  -0.040149   0.365025   0.003724  -0.041189   0.000030
    25  H   -0.007427   0.000640  -0.000053   0.000043   0.000000  -0.000004
    26  H   -0.000224  -0.000002  -0.000000   0.000000  -0.000000   0.000000
    27  H   -0.000000  -0.000000   0.000000   0.000000   0.000000   0.000000
    28  H   -0.000204   0.000000  -0.000000  -0.000003  -0.000000  -0.000002
    29  H   -0.012991   0.000081  -0.000004   0.002822  -0.000034   0.007261
    30  H    0.000751  -0.008721   0.000105   0.000076   0.000003   0.000000
    31  H   -0.000002  -0.000201   0.000001  -0.000000  -0.000000   0.000000
    32  H    0.000000  -0.000241   0.000001  -0.000000  -0.000000   0.000000
    33  H    0.000024  -0.011078   0.001700   0.000081  -0.000078   0.000000
    34  H    0.000000  -0.000000   0.000000  -0.000000  -0.000000  -0.000000
    35  H    0.000000   0.000000   0.000000   0.000000   0.000000   0.000000
    36  H    0.000000  -0.000000  -0.000000  -0.000000   0.000000   0.000000
               7          8          9         10         11         12
     1  C    0.292242  -0.031209   0.006631   0.000568   0.006668  -0.034524
     2  C   -0.045890  -0.004654   0.000329   0.000013  -0.000094   0.003124
     3  C    0.009094   0.000049   0.000002  -0.000000   0.000002  -0.000249
     4  C   -0.058720   0.002174  -0.000115   0.000007   0.000378  -0.002485
     5  O    0.003363  -0.000065   0.000000   0.000000  -0.000000   0.000073
     6  O   -0.001221  -0.000068  -0.000001   0.000001  -0.000004  -0.000242
     7  C    4.894536   0.503243  -0.029756  -0.031122  -0.027575   0.507208
     8  C    0.503243   4.982072   0.503739  -0.053026  -0.045142  -0.064017
     9  C   -0.029756   0.503739   4.914684   0.534104  -0.040967  -0.044433
    10  C   -0.031122  -0.053026   0.534104   4.887589   0.529826  -0.052569
    11  C   -0.027575  -0.045142  -0.040967   0.529826   4.920042   0.502361
    12  C    0.507208  -0.064017  -0.044433  -0.052569   0.502361   4.971451
    13  C   -0.003536  -0.000926  -0.000104   0.000006  -0.000011   0.000332
    14  C   -0.000562   0.000002  -0.000035   0.000011  -0.000003  -0.000496
    15  C   -0.000055  -0.000169  -0.000042  -0.000001   0.000001  -0.000003
    16  C    0.000004   0.000010  -0.000000   0.000000  -0.000000   0.000000
    17  C   -0.000006   0.000003   0.000001  -0.000000   0.000000  -0.000000
    18  C    0.000278  -0.000337  -0.000004   0.000000  -0.000000   0.000004
    19  S    0.000000   0.000000   0.000000  -0.000000  -0.000000   0.000000
    20  O   -0.000000   0.000000   0.000000  -0.000000  -0.000000   0.000000
    21  O    0.000000  -0.000000  -0.000000   0.000000   0.000000  -0.000000
    22  C    0.000000  -0.000000  -0.000000  -0.000000   0.000000  -0.000000
    23  H   -0.000141  -0.000023  -0.000000  -0.000000   0.000000   0.000004
    24  H   -0.000186   0.000013   0.000000  -0.000000  -0.000000   0.000001
    25  H   -0.043108   0.361833  -0.035382   0.004879   0.000299   0.005891
    26  H    0.004254  -0.034452   0.362183  -0.039106   0.005037   0.000898
    27  H    0.000325   0.005624  -0.039531   0.364895  -0.039416   0.005569
    28  H    0.004218   0.000855   0.005032  -0.039349   0.363047  -0.034706
    29  H   -0.039314   0.006814   0.000179   0.005265  -0.037609   0.356222
    30  H    0.004368   0.001010  -0.000208  -0.000013   0.000030   0.000920
    31  H   -0.000002   0.000002   0.000002  -0.000000  -0.000000  -0.000000
    32  H    0.000000  -0.000000  -0.000000   0.000000   0.000000  -0.000000
    33  H    0.000000  -0.000006  -0.000000   0.000000  -0.000000   0.000000
    34  H    0.000000  -0.000000  -0.000000  -0.000000   0.000000   0.000000
    35  H   -0.000000   0.000000  -0.000000  -0.000000   0.000000   0.000000
    36  H   -0.000000   0.000000   0.000000   0.000000   0.000000  -0.000000
              13         14         15         16         17         18
     1  C   -0.028394  -0.005898   0.000373   0.000020  -0.000144   0.003316
     2  C    0.244010  -0.035175   0.009607   0.000157   0.009986  -0.043456
     3  C   -0.053955   0.003101  -0.000192  -0.000011   0.000537  -0.004774
     4  C    0.011607   0.000084  -0.000002   0.000000   0.000000  -0.000301
     5  O    0.005598  -0.000058   0.000000   0.000000  -0.000003  -0.000061
     6  O   -0.000028  -0.000000  -0.000000  -0.000000  -0.000000   0.000000
     7  C   -0.003536  -0.000562  -0.000055   0.000004  -0.000006   0.000278
     8  C   -0.000926   0.000002  -0.000169   0.000010   0.000003  -0.000337
     9  C   -0.000104  -0.000035  -0.000042  -0.000000   0.000001  -0.000004
    10  C    0.000006   0.000011  -0.000001   0.000000  -0.000000   0.000000
    11  C   -0.000011  -0.000003   0.000001  -0.000000   0.000000  -0.000000
    12  C    0.000332  -0.000496  -0.000003   0.000000  -0.000000   0.000004
    13  C    4.934020   0.503439  -0.007521  -0.058494   0.000346   0.469690
    14  C    0.503439   4.920092   0.481007  -0.044651  -0.049250  -0.062256
    15  C   -0.007521   0.481007   5.030370   0.350151  -0.028479  -0.048184
    16  C   -0.058494  -0.044651   0.350151   6.156265   0.442001  -0.036893
    17  C    0.000346  -0.049250  -0.028479   0.442001   5.002400   0.450965
    18  C    0.469690  -0.062256  -0.048184  -0.036893   0.450965   5.013011
    19  S   -0.003867   0.007069  -0.002628  -0.214366  -0.065036   0.008300
    20  O   -0.000024   0.000095  -0.000202  -0.097211  -0.003659   0.000025
    21  O   -0.000028  -0.000016   0.001298  -0.084924   0.000761   0.000770
    22  C   -0.000031   0.000534  -0.001877  -0.089830   0.002027  -0.000125
    23  H   -0.002231   0.000031   0.000013  -0.000001   0.000118   0.002786
    24  H    0.003296  -0.000082  -0.000008  -0.000000  -0.000089   0.000057
    25  H    0.002957   0.000514  -0.000138   0.000005  -0.000005   0.000352
    26  H   -0.000001   0.000002   0.000002  -0.000000  -0.000000   0.000000
    27  H   -0.000000   0.000000  -0.000000  -0.000000   0.000000   0.000000
    28  H    0.000000  -0.000000  -0.000000   0.000000  -0.000000  -0.000000
    29  H    0.000014  -0.000012  -0.000000   0.000000  -0.000000  -0.000000
    30  H   -0.041016   0.368344  -0.036427   0.007143   0.000051   0.005568
    31  H    0.004578  -0.014340   0.361744  -0.043575   0.004923   0.000802
    32  H    0.004745   0.000754   0.005033  -0.041373   0.359497  -0.018425
    33  H   -0.048944   0.005320   0.000158   0.007975  -0.032082   0.368757
    34  H   -0.000005  -0.000013  -0.000780  -0.001186  -0.000077   0.000003
    35  H    0.000000  -0.000001   0.000023   0.003169  -0.000016  -0.000000
    36  H    0.000001  -0.000044   0.000170   0.001294   0.000089   0.000009
              19         20         21         22         23         24
     1  C    0.000001   0.000000   0.000000  -0.000000  -0.004025  -0.005343
     2  C   -0.000029  -0.000000  -0.000000  -0.000000  -0.041195  -0.040149
     3  C   -0.000000  -0.000000  -0.000000   0.000000   0.360806   0.365025
     4  C    0.000000  -0.000000  -0.000000   0.000000   0.001004   0.003724
     5  O    0.000000   0.000000   0.000000  -0.000000  -0.038222  -0.041189
     6  O   -0.000000   0.000000  -0.000000   0.000000   0.000024   0.000030
     7  C    0.000000  -0.000000   0.000000   0.000000  -0.000141  -0.000186
     8  C    0.000000   0.000000  -0.000000  -0.000000  -0.000023   0.000013
     9  C    0.000000   0.000000  -0.000000  -0.000000  -0.000000   0.000000
    10  C   -0.000000  -0.000000   0.000000  -0.000000  -0.000000  -0.000000
    11  C   -0.000000  -0.000000   0.000000   0.000000   0.000000  -0.000000
    12  C    0.000000   0.000000  -0.000000  -0.000000   0.000004   0.000001
    13  C   -0.003867  -0.000024  -0.000028  -0.000031  -0.002231   0.003296
    14  C    0.007069   0.000095  -0.000016   0.000534   0.000031  -0.000082
    15  C   -0.002628  -0.000202   0.001298  -0.001877   0.000013  -0.000008
    16  C   -0.214366  -0.097211  -0.084924  -0.089830  -0.000001  -0.000000
    17  C   -0.065036  -0.003659   0.000761   0.002027   0.000118  -0.000089
    18  C    0.008300   0.000025   0.000770  -0.000125   0.002786   0.000057
    19  S   14.611697   0.310405   0.264183  -0.016290   0.000000  -0.000000
    20  O    0.310405   8.589223  -0.090342  -0.089421  -0.000000   0.000000
    21  O    0.264183  -0.090342   8.613545  -0.079153   0.000000  -0.000000
    22  C   -0.016290  -0.089421  -0.079153   5.928394   0.000000  -0.000000
    23  H    0.000000  -0.000000   0.000000   0.000000   0.518044  -0.034950
    24  H   -0.000000   0.000000  -0.000000  -0.000000  -0.034950   0.512092
    25  H   -0.000000  -0.000000   0.000000  -0.000000  -0.000010   0.000002
    26  H   -0.000000  -0.000000   0.000000   0.000000   0.000000  -0.000000
    27  H   -0.000000  -0.000000   0.000000  -0.000000  -0.000000  -0.000000
    28  H    0.000000   0.000000  -0.000000   0.000000  -0.000000   0.000000
    29  H   -0.000000   0.000000  -0.000000   0.000000  -0.000002   0.000008
    30  H    0.000074   0.000001   0.000000   0.000009  -0.000004   0.000000
    31  H   -0.012286  -0.000867  -0.000083   0.000394  -0.000000   0.000000
    32  H   -0.008072  -0.001063   0.006832  -0.000001   0.000003  -0.000000
    33  H    0.000114   0.000001   0.000007   0.000000   0.004452  -0.000141
    34  H    0.003447  -0.000092   0.002143   0.317986  -0.000000  -0.000000
    35  H   -0.017764  -0.000783  -0.001091   0.363723  -0.000000   0.000000
    36  H    0.000831   0.002144   0.000274   0.321018   0.000000  -0.000000
              25         26         27         28         29         30
     1  C   -0.007427  -0.000224  -0.000000  -0.000204  -0.012991   0.000751
     2  C    0.000640  -0.000002  -0.000000   0.000000   0.000081  -0.008721
     3  C   -0.000053  -0.000000   0.000000  -0.000000  -0.000004   0.000105
     4  C    0.000043   0.000000   0.000000  -0.000003   0.002822   0.000076
     5  O    0.000000  -0.000000   0.000000  -0.000000  -0.000034   0.000003
     6  O   -0.000004   0.000000   0.000000  -0.000002   0.007261   0.000000
     7  C   -0.043108   0.004254   0.000325   0.004218  -0.039314   0.004368
     8  C    0.361833  -0.034452   0.005624   0.000855   0.006814   0.001010
     9  C   -0.035382   0.362183  -0.039531   0.005032   0.000179  -0.000208
    10  C    0.004879  -0.039106   0.364895  -0.039349   0.005265  -0.000013
    11  C    0.000299   0.005037  -0.039416   0.363047  -0.037609   0.000030
    12  C    0.005891   0.000898   0.005569  -0.034706   0.356222   0.000920
    13  C    0.002957  -0.000001  -0.000000   0.000000   0.000014  -0.041016
    14  C    0.000514   0.000002   0.000000  -0.000000  -0.000012   0.368344
    15  C   -0.000138   0.000002  -0.000000  -0.000000  -0.000000  -0.036427
    16  C    0.000005  -0.000000  -0.000000   0.000000   0.000000   0.007143
    17  C   -0.000005  -0.000000   0.000000  -0.000000  -0.000000   0.000051
    18  C    0.000352   0.000000   0.000000  -0.000000  -0.000000   0.005568
    19  S   -0.000000  -0.000000  -0.000000   0.000000  -0.000000   0.000074
    20  O   -0.000000  -0.000000  -0.000000   0.000000   0.000000   0.000001
    21  O    0.000000   0.000000   0.000000  -0.000000  -0.000000   0.000000
    22  C   -0.000000   0.000000  -0.000000   0.000000   0.000000   0.000009
    23  H   -0.000010   0.000000  -0.000000  -0.000000  -0.000002  -0.000004
    24  H    0.000002  -0.000000  -0.000000   0.000000   0.000008   0.000000
    25  H    0.570200  -0.004553  -0.000178   0.000014  -0.000185  -0.000030
    26  H   -0.004553   0.573110  -0.005062  -0.000218   0.000012  -0.000001
    27  H   -0.000178  -0.005062   0.574226  -0.005038  -0.000178  -0.000000
    28  H    0.000014  -0.000218  -0.005038   0.572654  -0.004787  -0.000000
    29  H   -0.000185   0.000012  -0.000178  -0.004787   0.576325   0.000019
    30  H   -0.000030  -0.000001  -0.000000  -0.000000   0.000019   0.527998
    31  H   -0.000001  -0.000000   0.000000  -0.000000  -0.000000  -0.005100
    32  H   -0.000000   0.000000   0.000000  -0.000000  -0.000000   0.000009
    33  H    0.000012  -0.000000  -0.000000  -0.000000   0.000000  -0.000163
    34  H   -0.000000  -0.000000   0.000000  -0.000000  -0.000000   0.000003
    35  H   -0.000000  -0.000000  -0.000000   0.000000   0.000000  -0.000000
    36  H    0.000000   0.000000  -0.000000   0.000000  -0.000000  -0.000001
              31         32         33         34         35         36
     1  C   -0.000002   0.000000   0.000024   0.000000   0.000000   0.000000
     2  C   -0.000201  -0.000241  -0.011078  -0.000000   0.000000  -0.000000
     3  C    0.000001   0.000001   0.001700   0.000000   0.000000  -0.000000
     4  C   -0.000000  -0.000000   0.000081  -0.000000   0.000000  -0.000000
     5  O   -0.000000  -0.000000  -0.000078  -0.000000   0.000000   0.000000
     6  O    0.000000   0.000000   0.000000  -0.000000   0.000000   0.000000
     7  C   -0.000002   0.000000   0.000000   0.000000  -0.000000  -0.000000
     8  C    0.000002  -0.000000  -0.000006  -0.000000   0.000000   0.000000
     9  C    0.000002  -0.000000  -0.000000  -0.000000  -0.000000   0.000000
    10  C   -0.000000   0.000000   0.000000  -0.000000  -0.000000   0.000000
    11  C   -0.000000   0.000000  -0.000000   0.000000   0.000000   0.000000
    12  C   -0.000000  -0.000000   0.000000   0.000000   0.000000  -0.000000
    13  C    0.004578   0.004745  -0.048944  -0.000005   0.000000   0.000001
    14  C   -0.014340   0.000754   0.005320  -0.000013  -0.000001  -0.000044
    15  C    0.361744   0.005033   0.000158  -0.000780   0.000023   0.000170
    16  C   -0.043575  -0.041373   0.007975  -0.001186   0.003169   0.001294
    17  C    0.004923   0.359497  -0.032082  -0.000077  -0.000016   0.000089
    18  C    0.000802  -0.018425   0.368757   0.000003  -0.000000   0.000009
    19  S   -0.012286  -0.008072   0.000114   0.003447  -0.017764   0.000831
    20  O   -0.000867  -0.001063   0.000001  -0.000092  -0.000783   0.002144
    21  O   -0.000083   0.006832   0.000007   0.002143  -0.001091   0.000274
    22  C    0.000394  -0.000001   0.000000   0.317986   0.363723   0.321018
    23  H   -0.000000   0.000003   0.004452  -0.000000  -0.000000   0.000000
    24  H    0.000000  -0.000000  -0.000141  -0.000000   0.000000  -0.000000
    25  H   -0.000001  -0.000000   0.000012  -0.000000  -0.000000   0.000000
    26  H   -0.000000   0.000000  -0.000000  -0.000000  -0.000000   0.000000
    27  H    0.000000   0.000000  -0.000000   0.000000  -0.000000  -0.000000
    28  H   -0.000000  -0.000000  -0.000000  -0.000000   0.000000   0.000000
    29  H   -0.000000  -0.000000   0.000000  -0.000000   0.000000  -0.000000
    30  H   -0.005100   0.000009  -0.000163   0.000003  -0.000000  -0.000001
    31  H    0.521708  -0.000168   0.000010   0.001485   0.000091   0.000057
    32  H   -0.000168   0.508358  -0.005151  -0.000014   0.000003   0.000012
    33  H    0.000010  -0.005151   0.534676   0.000000  -0.000000   0.000000
    34  H    0.001485  -0.000014   0.000000   0.470241  -0.016491  -0.021728
    35  H    0.000091   0.000003  -0.000000  -0.016491   0.422646  -0.015462
    36  H    0.000057   0.000012   0.000000  -0.021728  -0.015462   0.466135
 Mulliken charges:
               1
     1  C    0.005823
     2  C   -0.036451
     3  C   -0.119342
     4  C    0.456842
     5  O   -0.432759
     6  O   -0.573304
     7  C    0.058063
     8  C   -0.133349
     9  C   -0.136306
    10  C   -0.111976
    11  C   -0.136871
    12  C   -0.120333
    13  C    0.064476
    14  C   -0.077507
    15  C   -0.113241
    16  C   -0.255676
    17  C   -0.094858
    18  C   -0.109879
    19  S    1.134217
    20  O   -0.618230
    21  O   -0.634177
    22  C   -0.657358
    23  H    0.233518
    24  H    0.237889
    25  H    0.143436
    26  H    0.138125
    27  H    0.138765
    28  H    0.138487
    29  H    0.140096
    30  H    0.175200
    31  H    0.180830
    32  H    0.189262
    33  H    0.174354
    34  H    0.245079
    35  H    0.261953
    36  H    0.245201
 Sum of Mulliken charges =  -0.00000
 Mulliken charges with hydrogens summed into heavy atoms:
               1
     1  C    0.005823
     2  C   -0.036451
     3  C    0.352066
     4  C    0.456842
     5  O   -0.432759
     6  O   -0.573304
     7  C    0.058063
     8  C    0.010087
     9  C    0.001819
    10  C    0.026789
    11  C    0.001617
    12  C    0.019763
    13  C    0.064476
    14  C    0.097693
    15  C    0.067589
    16  C   -0.255676
    17  C    0.094404
    18  C    0.064475
    19  S    1.134217
    20  O   -0.618230
    21  O   -0.634177
    22  C    0.094874
 Electronic spatial extent (au):  <R**2>=           9215.1768
 Charge=             -0.0000 electrons
 Dipole moment (field-independent basis, Debye):
    X=              1.3898    Y=              5.7314    Z=             -0.9324  Tot=              5.9708
 Quadrupole moment (field-independent basis, Debye-Ang):
   XX=           -228.6484   YY=           -110.3256   ZZ=           -136.0443
   XY=              6.5584   XZ=              4.1243   YZ=             -4.3139
 Traceless Quadrupole moment (field-independent basis, Debye-Ang):
   XX=            -70.3090   YY=             48.0138   ZZ=             22.2951
   XY=              6.5584   XZ=              4.1243   YZ=             -4.3139
 Octapole moment (field-independent basis, Debye-Ang**2):
  XXX=            -11.1125  YYY=             21.5737  ZZZ=             -2.6922  XYY=             51.0222
  XXY=            232.9237  XXZ=            -31.9857  XZZ=            -38.6285  YZZ=             -1.8117
  YYZ=              7.9432  XYZ=             -9.0610
 Hexadecapole moment (field-independent basis, Debye-Ang**3):
 XXXX=         -12068.0891 YYYY=          -2391.1083 ZZZZ=           -487.6403 XXXY=            148.0854
 XXXZ=            132.4395 YYYX=            -69.3502 YYYZ=              0.3915 ZZZX=              7.4864
 ZZZY=             -7.5823 XXYY=          -1845.8760 XXZZ=          -1762.9683 YYZZ=           -484.2160
 XXYZ=            -88.3358 YYXZ=             19.6581 ZZXY=             45.7489
 N-N= 1.827482646511D+03 E-N=-6.828394965299D+03  KE= 1.350586263686D+03
 1\1\GINC-CH-GOULDMAC5\SP\RB3LYP\6-31G\C17H14O4S1\MINGYU\10-Mar-2022\0\
 \# b3lyp/6-31g scrf=(solvent=water) scf=qc geom=connectivity\\MODEL 1\
 \0,1\C,0,31.764,22.576,138.184\C,0,30.856,21.989,139.141\C,0,31.668,21
 .474,140.165\C,0,33.045,22.364,138.729\O,0,32.937,21.719,139.883\O,0,3
 4.253,22.775,138.153\C,0,31.446,23.298,136.844\C,0,30.568,22.739,135.9
 19\C,0,30.3,23.403,134.707\C,0,30.917,24.62,134.422\C,0,31.8,25.177,13
 5.345\C,0,32.063,24.514,136.554\C,0,29.351,21.892,139.11\C,0,28.542,22
 .947,138.699\C,0,27.159,22.791,138.707\C,0,26.597,21.595,139.122\C,0,2
 7.413,20.55,139.536\C,0,28.787,20.706,139.535\S,0,24.837,21.354,139.14
 8\O,0,24.27,21.855,140.455\O,0,24.535,19.876,138.981\C,0,24.064,22.272
 ,137.832\H,0,31.517,20.418,140.244\H,0,31.412,21.94,141.094\H,0,30.111
 ,21.835,136.122\H,0,29.645,22.987,134.027\H,0,30.721,25.106,133.533\H,
 0,32.26,26.078,135.139\H,0,32.719,24.931,137.234\H,0,28.964,23.837,138
 .391\H,0,26.551,23.568,138.402\H,0,26.994,19.658,139.844\H,0,29.392,19
 .933,139.853\H,0,24.277,23.314,137.951\H,0,23.006,22.118,137.864\H,0,2
 4.446,21.935,136.891\\Version=EM64M-G16RevA.03\State=1-A\HF=-1354.7652
 924\RMSD=2.402e-12\Dipole=-1.313679,1.249541,-1.4936764\Quadrupole=-38
 .670958,19.3880421,19.2829159,-19.5964112,25.8561539,-3.1737578\PG=C01
  [X(C17H14O4S1)]\\@


 IT MATTERS NOT HOW DEEP YOU PLOW,
 BUT HOW LONG YOU STAY IN THE FURROW.
 Job cpu time:       0 days  0 hours 20 minutes 40.5 seconds.
 Elapsed time:       0 days  0 hours  6 minutes 48.0 seconds.
 File lengths (MBytes):  RWF=    173 Int=      0 D2E=      0 Chk=      5 Scr=      1
 Normal termination of Gaussian 16 at Thu Mar 10 13:16:03 2022.
