 Entering Gaussian System, Link 0=g16
 Initial command:
 /Applications/g16/l1.exe "/Users/mingyu/Desktop/Drug/Gau-58472.inp" -scrdir="/Users/mingyu/Desktop/Drug/"
 Entering Link 1 = /Applications/g16/l1.exe PID=     58473.
  
 Copyright (c) 1988,1990,1992,1993,1995,1998,2003,2009,2016,
            Gaussian, Inc.  All Rights Reserved.
  
 This is part of the Gaussian(R) 16 program.  It is based on
 the Gaussian(R) 09 system (copyright 2009, Gaussian, Inc.),
 the Gaussian(R) 03 system (copyright 2003, Gaussian, Inc.),
 the Gaussian(R) 98 system (copyright 1998, Gaussian, Inc.),
 the Gaussian(R) 94 system (copyright 1995, Gaussian, Inc.),
 the Gaussian 92(TM) system (copyright 1992, Gaussian, Inc.),
 the Gaussian 90(TM) system (copyright 1990, Gaussian, Inc.),
 the Gaussian 88(TM) system (copyright 1988, Gaussian, Inc.),
 the Gaussian 86(TM) system (copyright 1986, Carnegie Mellon
 University), and the Gaussian 82(TM) system (copyright 1983,
 Carnegie Mellon University). Gaussian is a federally registered
 trademark of Gaussian, Inc.
  
 This software contains proprietary and confidential information,
 including trade secrets, belonging to Gaussian, Inc.
  
 This software is provided under written license and may be
 used, copied, transmitted, or stored only in accord with that
 written license.
  
 The following legend is applicable only to US Government
 contracts under FAR:
  
                    RESTRICTED RIGHTS LEGEND
  
 Use, reproduction and disclosure by the US Government is
 subject to restrictions as set forth in subparagraphs (a)
 and (c) of the Commercial Computer Software - Restricted
 Rights clause in FAR 52.227-19.
  
 Gaussian, Inc.
 340 Quinnipiac St., Bldg. 40, Wallingford CT 06492
  
  
 ---------------------------------------------------------------
 Warning -- This program may not be used in any manner that
 competes with the business of Gaussian, Inc. or will provide
 assistance to any competitor of Gaussian, Inc.  The licensee
 of this program is prohibited from giving any competitor of
 Gaussian, Inc. access to this program.  By using this program,
 the user acknowledges that Gaussian, Inc. is engaged in the
 business of creating and licensing software in the field of
 computational chemistry and represents and warrants to the
 licensee that it is not a competitor of Gaussian, Inc. and that
 it will not use this program in any manner prohibited above.
 ---------------------------------------------------------------
  

 Cite this work as:
 Gaussian 16, Revision A.03,
 M. J. Frisch, G. W. Trucks, H. B. Schlegel, G. E. Scuseria, 
 M. A. Robb, J. R. Cheeseman, G. Scalmani, V. Barone, 
 G. A. Petersson, H. Nakatsuji, X. Li, M. Caricato, A. V. Marenich, 
 J. Bloino, B. G. Janesko, R. Gomperts, B. Mennucci, H. P. Hratchian, 
 J. V. Ortiz, A. F. Izmaylov, J. L. Sonnenberg, D. Williams-Young, 
 F. Ding, F. Lipparini, F. Egidi, J. Goings, B. Peng, A. Petrone, 
 T. Henderson, D. Ranasinghe, V. G. Zakrzewski, J. Gao, N. Rega, 
 G. Zheng, W. Liang, M. Hada, M. Ehara, K. Toyota, R. Fukuda, 
 J. Hasegawa, M. Ishida, T. Nakajima, Y. Honda, O. Kitao, H. Nakai, 
 T. Vreven, K. Throssell, J. A. Montgomery, Jr., J. E. Peralta, 
 F. Ogliaro, M. J. Bearpark, J. J. Heyd, E. N. Brothers, K. N. Kudin, 
 V. N. Staroverov, T. A. Keith, R. Kobayashi, J. Normand, 
 K. Raghavachari, A. P. Rendell, J. C. Burant, S. S. Iyengar, 
 J. Tomasi, M. Cossi, J. M. Millam, M. Klene, C. Adamo, R. Cammi, 
 J. W. Ochterski, R. L. Martin, K. Morokuma, O. Farkas, 
 J. B. Foresman, and D. J. Fox, Gaussian, Inc., Wallingford CT, 2016.
 
 ******************************************
 Gaussian 16:  EM64M-G16RevA.03 25-Dec-2016
                10-Mar-2022 
 ******************************************
 %chk=Vioxx_b.chk
 %chk=opt1.chk
 -------------------------------------------------------
 # opt=loose b3lyp scrf=(solvent=water) def2svp em=gd3bj
 -------------------------------------------------------
 1/7=-1,18=20,19=15,26=3,38=1/1,3;
 2/9=110,12=2,17=6,18=5,40=1/2;
 3/5=43,7=101,11=2,25=1,30=1,70=2201,71=1,72=1,74=-5,124=41/1,2,3;
 4//1;
 5/5=2,38=5,53=1/2;
 6/7=2,8=2,9=2,10=2,28=1/1;
 7//1,2,3,16;
 1/7=-1,18=20,19=15,26=3/3(2);
 2/9=110/2;
 99//99;
 2/9=110/2;
 3/5=43,7=101,11=2,25=1,30=1,70=2205,71=1,72=1,74=-5,124=41/1,2,3;
 4/5=5,16=3,69=1/1;
 5/5=2,38=5,53=1/2;
 7//1,2,3,16;
 1/7=-1,18=20,19=15,26=3/3(-5);
 2/9=110/2;
 6/7=2,8=2,9=2,10=2,19=2,28=1/1;
 99/9=1/99;
 -------
 MODEL 1
 -------
 Symbolic Z-matrix:
 Charge =  0 Multiplicity = 1
 C(PDBName=C1,ResName=RCX,ResNum=601_A)  75.224    14.252    130.802 
 C(PDBName=C2,ResName=RCX,ResNum=601_A)  76.093    13.252    131.376 
 C(PDBName=C3,ResName=RCX,ResNum=601_A)  75.243    12.23     131.832 
 C(PDBName=C4,ResName=RCX,ResNum=601_A)  73.926    13.732    130.961 
 O(PDBName=O5,ResName=RCX,ResNum=601_A)  73.989    12.553    131.566 
 O(PDBName=O6,ResName=RCX,ResNum=601_A)  72.743    14.352    130.54 
 C(PDBName=C7,ResName=RCX,ResNum=601_A)  75.593    15.609    130.139 
 C(PDBName=C8,ResName=RCX,ResNum=601_A)  76.479    16.491    130.754 
 C(PDBName=C9,ResName=RCX,ResNum=601_A)  76.793    17.719    130.142 
 C(PDBName=C10,ResName=RCX,ResNum=601_A)  76.216    18.063    128.92 
 C(PDBName=C11,ResName=RCX,ResNum=601_A)  75.326    17.184    128.307 
 C(PDBName=C12,ResName=RCX,ResNum=601_A)  75.016    15.958    128.918 
 C(PDBName=C13,ResName=RCX,ResNum=601_A)  77.596    13.242    131.514 
 C(PDBName=C14,ResName=RCX,ResNum=601_A)  78.442    13.67     130.496 
 C(PDBName=C15,ResName=RCX,ResNum=601_A)  79.82     13.623    130.687 
 C(PDBName=C16,ResName=RCX,ResNum=601_A)  80.34     13.15     131.88 
 C(PDBName=C17,ResName=RCX,ResNum=601_A)  79.486    12.719    132.889 
 C(PDBName=C18,ResName=RCX,ResNum=601_A)  78.118    12.76     132.698 
 S(PDBName=S19,ResName=RCX,ResNum=601_A)  82.091    13.072    132.166 
 O(PDBName=O20,ResName=RCX,ResNum=601_A)  82.639    11.77     131.632 
 O(PDBName=O21,ResName=RCX,ResNum=601_A)  82.357    13.178    133.656 
 C(PDBName=C22,ResName=RCX,ResNum=601_A)  82.92     14.4      131.317 
 H(PDBName=H3,ResName=RCX,ResNum=601_A)  75.561    11.331    132.318 
 H(PDBName=H6,ResName=RCX,ResNum=601_A)  71.994    13.788    130.749 
 H(PDBName=H8,ResName=RCX,ResNum=601_A)  76.922    16.234    131.694 
 H(PDBName=H9,ResName=RCX,ResNum=601_A)  77.477    18.391    130.616 
 H(PDBName=H10,ResName=RCX,ResNum=601_A)  76.456    18.997    128.456 
 H(PDBName=H11,ResName=RCX,ResNum=601_A)  74.878    17.443    127.37 
 H(PDBName=H12,ResName=RCX,ResNum=601_A)  74.332    15.286    128.443 
 H(PDBName=H14,ResName=RCX,ResNum=601_A)  78.037    14.032    129.574 
 H(PDBName=H15,ResName=RCX,ResNum=601_A)  80.478    13.953    129.911 
 H(PDBName=H17,ResName=RCX,ResNum=601_A)  79.887    12.356    133.812 
 H(PDBName=H18,ResName=RCX,ResNum=601_A)  77.461    12.417    133.47 
 H(PDBName=1H22,ResName=RCX,ResNum=601_A)  83.8      14.676    131.86 
 H(PDBName=2H22,ResName=RCX,ResNum=601_A)  83.193    14.079    130.334 
 H(PDBName=3H22,ResName=RCX,ResNum=601_A)  82.265    15.243    131.248 
 
 Center=     77.75530556     14.47791667    130.91797222
 Residue   1 PDB Number   601_A RCX charge    0.00000000 layers R        AvRTP=      0.00000000    180.00000000     90.00000000

 GradGradGradGradGradGradGradGradGradGradGradGradGradGradGradGradGradGrad
 Berny optimization.
 Initialization pass.
                           ----------------------------
                           !    Initial Parameters    !
                           ! (Angstroms and Degrees)  !
 --------------------------                            --------------------------
 ! Name  Definition              Value          Derivative Info.                !
 --------------------------------------------------------------------------------
 ! R1    R(1,2)                  1.4438         estimate D2E/DX2                !
 ! R2    R(1,4)                  1.4073         estimate D2E/DX2                !
 ! R3    R(1,7)                  1.5547         estimate D2E/DX2                !
 ! R4    R(2,3)                  1.4053         estimate D2E/DX2                !
 ! R5    R(2,13)                 1.5094         estimate D2E/DX2                !
 ! R6    R(3,5)                  1.322          estimate D2E/DX2                !
 ! R7    R(3,23)                 1.0703         estimate D2E/DX2                !
 ! R8    R(4,5)                  1.3267         estimate D2E/DX2                !
 ! R9    R(4,6)                  1.4004         estimate D2E/DX2                !
 ! R10   R(6,24)                 0.9606         estimate D2E/DX2                !
 ! R11   R(7,8)                  1.3932         estimate D2E/DX2                !
 ! R12   R(7,12)                 1.3948         estimate D2E/DX2                !
 ! R13   R(8,9)                  1.4075         estimate D2E/DX2                !
 ! R14   R(8,25)                 1.0705         estimate D2E/DX2                !
 ! R15   R(9,10)                 1.3945         estimate D2E/DX2                !
 ! R16   R(9,26)                 1.0696         estimate D2E/DX2                !
 ! R17   R(10,11)                1.393          estimate D2E/DX2                !
 ! R18   R(10,27)                1.0702         estimate D2E/DX2                !
 ! R19   R(11,12)                1.4045         estimate D2E/DX2                !
 ! R20   R(11,28)                1.0704         estimate D2E/DX2                !
 ! R21   R(12,29)                1.0701         estimate D2E/DX2                !
 ! R22   R(13,14)                1.3911         estimate D2E/DX2                !
 ! R23   R(13,18)                1.3808         estimate D2E/DX2                !
 ! R24   R(14,15)                1.392          estimate D2E/DX2                !
 ! R25   R(14,30)                1.0701         estimate D2E/DX2                !
 ! R26   R(15,16)                1.3847         estimate D2E/DX2                !
 ! R27   R(15,31)                1.0696         estimate D2E/DX2                !
 ! R28   R(16,17)                1.3904         estimate D2E/DX2                !
 ! R29   R(16,19)                1.7759         estimate D2E/DX2                !
 ! R30   R(17,18)                1.3819         estimate D2E/DX2                !
 ! R31   R(17,32)                1.0698         estimate D2E/DX2                !
 ! R32   R(18,33)                1.0702         estimate D2E/DX2                !
 ! R33   R(19,20)                1.5102         estimate D2E/DX2                !
 ! R34   R(19,21)                1.5173         estimate D2E/DX2                !
 ! R35   R(19,22)                1.7809         estimate D2E/DX2                !
 ! R36   R(22,34)                1.0702         estimate D2E/DX2                !
 ! R37   R(22,35)                1.0695         estimate D2E/DX2                !
 ! R38   R(22,36)                1.0698         estimate D2E/DX2                !
 ! A1    A(2,1,4)              104.7317         estimate D2E/DX2                !
 ! A2    A(2,1,7)              129.139          estimate D2E/DX2                !
 ! A3    A(4,1,7)              126.1285         estimate D2E/DX2                !
 ! A4    A(1,2,3)              105.5838         estimate D2E/DX2                !
 ! A5    A(1,2,13)             129.8124         estimate D2E/DX2                !
 ! A6    A(3,2,13)             124.5979         estimate D2E/DX2                !
 ! A7    A(2,3,5)              109.3154         estimate D2E/DX2                !
 ! A8    A(2,3,23)             125.3438         estimate D2E/DX2                !
 ! A9    A(5,3,23)             125.3407         estimate D2E/DX2                !
 ! A10   A(1,4,5)              109.6394         estimate D2E/DX2                !
 ! A11   A(1,4,6)              125.5627         estimate D2E/DX2                !
 ! A12   A(5,4,6)              124.7965         estimate D2E/DX2                !
 ! A13   A(3,5,4)              110.7287         estimate D2E/DX2                !
 ! A14   A(4,6,24)             109.4704         estimate D2E/DX2                !
 ! A15   A(1,7,8)              121.0132         estimate D2E/DX2                !
 ! A16   A(1,7,12)             119.571          estimate D2E/DX2                !
 ! A17   A(8,7,12)             119.4108         estimate D2E/DX2                !
 ! A18   A(7,8,9)              120.1487         estimate D2E/DX2                !
 ! A19   A(7,8,25)             119.9207         estimate D2E/DX2                !
 ! A20   A(9,8,25)             119.9307         estimate D2E/DX2                !
 ! A21   A(8,9,10)             120.2613         estimate D2E/DX2                !
 ! A22   A(8,9,26)             119.8742         estimate D2E/DX2                !
 ! A23   A(10,9,26)            119.8644         estimate D2E/DX2                !
 ! A24   A(9,10,11)            119.6252         estimate D2E/DX2                !
 ! A25   A(9,10,27)            120.1627         estimate D2E/DX2                !
 ! A26   A(11,10,27)           120.212          estimate D2E/DX2                !
 ! A27   A(10,11,12)           120.0268         estimate D2E/DX2                !
 ! A28   A(10,11,28)           119.9954         estimate D2E/DX2                !
 ! A29   A(12,11,28)           119.9779         estimate D2E/DX2                !
 ! A30   A(7,12,11)            120.5263         estimate D2E/DX2                !
 ! A31   A(7,12,29)            119.7266         estimate D2E/DX2                !
 ! A32   A(11,12,29)           119.7471         estimate D2E/DX2                !
 ! A33   A(2,13,14)            122.4549         estimate D2E/DX2                !
 ! A34   A(2,13,18)            117.2037         estimate D2E/DX2                !
 ! A35   A(14,13,18)           120.3295         estimate D2E/DX2                !
 ! A36   A(13,14,15)           119.422          estimate D2E/DX2                !
 ! A37   A(13,14,30)           120.2924         estimate D2E/DX2                !
 ! A38   A(15,14,30)           120.2856         estimate D2E/DX2                !
 ! A39   A(14,15,16)           120.1006         estimate D2E/DX2                !
 ! A40   A(14,15,31)           119.9367         estimate D2E/DX2                !
 ! A41   A(16,15,31)           119.9627         estimate D2E/DX2                !
 ! A42   A(15,16,17)           120.0307         estimate D2E/DX2                !
 ! A43   A(15,16,19)           121.6021         estimate D2E/DX2                !
 ! A44   A(17,16,19)           118.367          estimate D2E/DX2                !
 ! A45   A(16,17,18)           119.9041         estimate D2E/DX2                !
 ! A46   A(16,17,32)           120.0704         estimate D2E/DX2                !
 ! A47   A(18,17,32)           120.0255         estimate D2E/DX2                !
 ! A48   A(13,18,17)           120.2062         estimate D2E/DX2                !
 ! A49   A(13,18,33)           119.8907         estimate D2E/DX2                !
 ! A50   A(17,18,33)           119.9031         estimate D2E/DX2                !
 ! A51   A(16,19,20)           109.7976         estimate D2E/DX2                !
 ! A52   A(16,19,21)           109.1436         estimate D2E/DX2                !
 ! A53   A(16,19,22)           110.4529         estimate D2E/DX2                !
 ! A54   A(20,19,21)           110.1122         estimate D2E/DX2                !
 ! A55   A(20,19,22)           107.7828         estimate D2E/DX2                !
 ! A56   A(21,19,22)           109.5393         estimate D2E/DX2                !
 ! A57   A(19,22,34)           109.4618         estimate D2E/DX2                !
 ! A58   A(19,22,35)           109.4615         estimate D2E/DX2                !
 ! A59   A(19,22,36)           109.4722         estimate D2E/DX2                !
 ! A60   A(34,22,35)           109.5019         estimate D2E/DX2                !
 ! A61   A(34,22,36)           109.4476         estimate D2E/DX2                !
 ! A62   A(35,22,36)           109.4823         estimate D2E/DX2                !
 ! D1    D(4,1,2,3)             -0.2983         estimate D2E/DX2                !
 ! D2    D(4,1,2,13)          -179.4213         estimate D2E/DX2                !
 ! D3    D(7,1,2,3)           -179.9814         estimate D2E/DX2                !
 ! D4    D(7,1,2,13)             0.8956         estimate D2E/DX2                !
 ! D5    D(2,1,4,5)              0.2            estimate D2E/DX2                !
 ! D6    D(2,1,4,6)           -179.3833         estimate D2E/DX2                !
 ! D7    D(7,1,4,5)            179.8957         estimate D2E/DX2                !
 ! D8    D(7,1,4,6)              0.3125         estimate D2E/DX2                !
 ! D9    D(2,1,7,8)            -47.9772         estimate D2E/DX2                !
 ! D10   D(2,1,7,12)           132.8504         estimate D2E/DX2                !
 ! D11   D(4,1,7,8)            132.4022         estimate D2E/DX2                !
 ! D12   D(4,1,7,12)           -46.7702         estimate D2E/DX2                !
 ! D13   D(1,2,3,5)              0.3042         estimate D2E/DX2                !
 ! D14   D(1,2,3,23)          -179.7205         estimate D2E/DX2                !
 ! D15   D(13,2,3,5)           179.4858         estimate D2E/DX2                !
 ! D16   D(13,2,3,23)           -0.539          estimate D2E/DX2                !
 ! D17   D(1,2,13,14)          -42.0133         estimate D2E/DX2                !
 ! D18   D(1,2,13,18)          139.2405         estimate D2E/DX2                !
 ! D19   D(3,2,13,14)          139.013          estimate D2E/DX2                !
 ! D20   D(3,2,13,18)          -39.7332         estimate D2E/DX2                !
 ! D21   D(2,3,5,4)             -0.188          estimate D2E/DX2                !
 ! D22   D(23,3,5,4)           179.8368         estimate D2E/DX2                !
 ! D23   D(1,4,5,3)             -0.014          estimate D2E/DX2                !
 ! D24   D(6,4,5,3)            179.5732         estimate D2E/DX2                !
 ! D25   D(1,4,6,24)           178.9191         estimate D2E/DX2                !
 ! D26   D(5,4,6,24)            -0.603          estimate D2E/DX2                !
 ! D27   D(1,7,8,9)           -179.5504         estimate D2E/DX2                !
 ! D28   D(1,7,8,25)             0.4595         estimate D2E/DX2                !
 ! D29   D(12,7,8,9)            -0.3767         estimate D2E/DX2                !
 ! D30   D(12,7,8,25)          179.6332         estimate D2E/DX2                !
 ! D31   D(1,7,12,11)          179.438          estimate D2E/DX2                !
 ! D32   D(1,7,12,29)           -0.5847         estimate D2E/DX2                !
 ! D33   D(8,7,12,11)            0.2523         estimate D2E/DX2                !
 ! D34   D(8,7,12,29)         -179.7704         estimate D2E/DX2                !
 ! D35   D(7,8,9,10)             0.2541         estimate D2E/DX2                !
 ! D36   D(7,8,9,26)          -179.7381         estimate D2E/DX2                !
 ! D37   D(25,8,9,10)         -179.7558         estimate D2E/DX2                !
 ! D38   D(25,8,9,26)            0.252          estimate D2E/DX2                !
 ! D39   D(8,9,10,11)           -0.0016         estimate D2E/DX2                !
 ! D40   D(8,9,10,27)         -179.9887         estimate D2E/DX2                !
 ! D41   D(26,9,10,11)         179.9907         estimate D2E/DX2                !
 ! D42   D(26,9,10,27)           0.0035         estimate D2E/DX2                !
 ! D43   D(9,10,11,12)          -0.1236         estimate D2E/DX2                !
 ! D44   D(9,10,11,28)         179.8662         estimate D2E/DX2                !
 ! D45   D(27,10,11,12)        179.8635         estimate D2E/DX2                !
 ! D46   D(27,10,11,28)         -0.1467         estimate D2E/DX2                !
 ! D47   D(10,11,12,7)          -0.0016         estimate D2E/DX2                !
 ! D48   D(10,11,12,29)       -179.9789         estimate D2E/DX2                !
 ! D49   D(28,11,12,7)        -179.9914         estimate D2E/DX2                !
 ! D50   D(28,11,12,29)          0.0313         estimate D2E/DX2                !
 ! D51   D(2,13,14,15)        -179.4591         estimate D2E/DX2                !
 ! D52   D(2,13,14,30)           0.5261         estimate D2E/DX2                !
 ! D53   D(18,13,14,15)         -0.7511         estimate D2E/DX2                !
 ! D54   D(18,13,14,30)        179.2342         estimate D2E/DX2                !
 ! D55   D(2,13,18,17)         179.8076         estimate D2E/DX2                !
 ! D56   D(2,13,18,33)          -0.1828         estimate D2E/DX2                !
 ! D57   D(14,13,18,17)          1.0334         estimate D2E/DX2                !
 ! D58   D(14,13,18,33)       -178.957          estimate D2E/DX2                !
 ! D59   D(13,14,15,16)          0.1854         estimate D2E/DX2                !
 ! D60   D(13,14,15,31)       -179.8016         estimate D2E/DX2                !
 ! D61   D(30,14,15,16)       -179.7999         estimate D2E/DX2                !
 ! D62   D(30,14,15,31)          0.2132         estimate D2E/DX2                !
 ! D63   D(14,15,16,17)          0.099          estimate D2E/DX2                !
 ! D64   D(14,15,16,19)        179.9757         estimate D2E/DX2                !
 ! D65   D(31,15,16,17)       -179.914          estimate D2E/DX2                !
 ! D66   D(31,15,16,19)         -0.0373         estimate D2E/DX2                !
 ! D67   D(15,16,17,18)          0.1768         estimate D2E/DX2                !
 ! D68   D(15,16,17,32)       -179.8291         estimate D2E/DX2                !
 ! D69   D(19,16,17,18)       -179.7039         estimate D2E/DX2                !
 ! D70   D(19,16,17,32)          0.2902         estimate D2E/DX2                !
 ! D71   D(15,16,19,20)        -86.3254         estimate D2E/DX2                !
 ! D72   D(15,16,19,21)        152.89           estimate D2E/DX2                !
 ! D73   D(15,16,19,22)         32.4049         estimate D2E/DX2                !
 ! D74   D(17,16,19,20)         93.5533         estimate D2E/DX2                !
 ! D75   D(17,16,19,21)        -27.2313         estimate D2E/DX2                !
 ! D76   D(17,16,19,22)       -147.7164         estimate D2E/DX2                !
 ! D77   D(16,17,18,13)         -0.7425         estimate D2E/DX2                !
 ! D78   D(16,17,18,33)        179.2479         estimate D2E/DX2                !
 ! D79   D(32,17,18,13)        179.2634         estimate D2E/DX2                !
 ! D80   D(32,17,18,33)         -0.7462         estimate D2E/DX2                !
 ! D81   D(16,19,22,34)        149.9471         estimate D2E/DX2                !
 ! D82   D(16,19,22,35)        -90.0271         estimate D2E/DX2                !
 ! D83   D(16,19,22,36)         29.9811         estimate D2E/DX2                !
 ! D84   D(20,19,22,34)        -90.103          estimate D2E/DX2                !
 ! D85   D(20,19,22,35)         29.9228         estimate D2E/DX2                !
 ! D86   D(20,19,22,36)        149.931          estimate D2E/DX2                !
 ! D87   D(21,19,22,34)         29.699          estimate D2E/DX2                !
 ! D88   D(21,19,22,35)        149.7249         estimate D2E/DX2                !
 ! D89   D(21,19,22,36)        -90.2669         estimate D2E/DX2                !
 --------------------------------------------------------------------------------
 Trust Radius=3.00D-01 FncErr=1.00D-07 GrdErr=1.00D-06 EigMax=2.50D+02 EigMin=1.00D-04
 Number of steps in this run=    199 maximum allowed number of steps=    216.
 GradGradGradGradGradGradGradGradGradGradGradGradGradGradGradGradGradGrad

                          Input orientation:                          
 ---------------------------------------------------------------------
 Center     Atomic      Atomic             Coordinates (Angstroms)
 Number     Number       Type             X           Y           Z
 ---------------------------------------------------------------------
      1          6           0       75.224000   14.252000  130.802000
      2          6           0       76.093000   13.252000  131.376000
      3          6           0       75.243000   12.230000  131.832000
      4          6           0       73.926000   13.732000  130.961000
      5          8           0       73.989000   12.553000  131.566000
      6          8           0       72.743000   14.352000  130.540000
      7          6           0       75.593000   15.609000  130.139000
      8          6           0       76.479000   16.491000  130.754000
      9          6           0       76.793000   17.719000  130.142000
     10          6           0       76.216000   18.063000  128.920000
     11          6           0       75.326000   17.184000  128.307000
     12          6           0       75.016000   15.958000  128.918000
     13          6           0       77.596000   13.242000  131.514000
     14          6           0       78.442000   13.670000  130.496000
     15          6           0       79.820000   13.623000  130.687000
     16          6           0       80.340000   13.150000  131.880000
     17          6           0       79.486000   12.719000  132.889000
     18          6           0       78.118000   12.760000  132.698000
     19         16           0       82.091000   13.072000  132.166000
     20          8           0       82.639000   11.770000  131.632000
     21          8           0       82.357000   13.178000  133.656000
     22          6           0       82.920000   14.400000  131.317000
     23          1           0       75.561000   11.331000  132.318000
     24          1           0       71.994000   13.788000  130.749000
     25          1           0       76.922000   16.234000  131.694000
     26          1           0       77.477000   18.391000  130.616000
     27          1           0       76.456000   18.997000  128.456000
     28          1           0       74.878000   17.443000  127.370000
     29          1           0       74.332000   15.286000  128.443000
     30          1           0       78.037000   14.032000  129.574000
     31          1           0       80.478000   13.953000  129.911000
     32          1           0       79.887000   12.356000  133.812000
     33          1           0       77.461000   12.417000  133.470000
     34          1           0       83.800000   14.676000  131.860000
     35          1           0       83.193000   14.079000  130.334000
     36          1           0       82.265000   15.243000  131.248000
 ---------------------------------------------------------------------
                    Distance matrix (angstroms):
                    1          2          3          4          5
     1  C    0.000000
     2  C    1.443827   0.000000
     3  C    2.269305   1.405318   0.000000
     4  C    1.407297   2.257989   2.179251   0.000000
     5  O    2.235066   2.225200   1.321969   1.326663   0.000000
     6  O    2.496799   3.623727   3.524507   1.400404   2.416939
     7  C    1.554728   2.708435   3.795575   2.641534   3.734740
     8  C    2.567187   3.320693   4.565731   3.764670   4.729407
     9  C    3.862311   4.686880   5.948758   4.978616   6.047954
    10  C    4.364597   5.403035   6.591689   5.307291   6.505455
    11  C    3.851240   5.046551   6.080677   4.573841   5.818489
    12  C    2.550129   3.811054   4.737184   3.212013   4.434034
    13  C    2.674589   1.509355   2.581061   3.743636   3.672584
    14  C    3.284491   2.543015   3.753944   4.540300   4.714000
    15  C    4.640267   3.808266   4.919391   5.901372   5.993171
    16  C    5.343215   4.278017   5.179586   6.505588   6.386721
    17  C    4.987013   3.753093   4.399934   5.971344   5.656403
    18  C    3.767773   2.467868   3.049013   4.640562   4.286364
    19  S    7.099900   6.052479   6.907650   8.279786   8.140747
    20  O    7.863298   6.716545   7.412990   8.956342   8.685617
    21  O    7.757479   6.666451   7.405044   8.868579   8.647667
    22  C    7.714632   6.923100   7.994401   9.025796   9.123386
    23  H    3.308182   2.204683   1.070290   3.206162   2.128373
    24  H    3.263588   4.181175   3.762480   1.944403   2.484500
    25  H    2.758114   3.111381   4.343973   3.971563   4.708358
    26  H    4.716135   5.376093   6.665383   5.868126   6.866650
    27  H    5.434755   6.454703   7.659049   6.355797   7.568575
    28  H    4.699023   5.923575   6.871538   5.251010   6.504524
    29  H    2.725748   3.980046   4.653426   2.986650   4.164141
    30  H    3.077231   2.763103   4.018980   4.349033   4.747822
    31  H    5.337396   4.676094   5.836454   6.639280   6.841502
    32  H    5.865022   4.596885   5.050051   6.749452   6.314248
    33  H    3.935685   2.636946   2.763609   4.529959   3.962133
    34  H    8.651411   7.852381   8.899772   9.959679  10.042375
    35  H    7.984605   7.223551   8.298512   9.294667   9.410638
    36  H    7.124372   6.486451   7.663401   8.479647   8.708008
                    6          7          8          9         10
     6  O    0.000000
     7  C    3.140597   0.000000
     8  C    4.310315   1.393250   0.000000
     9  C    5.281817   2.427367   1.407524   0.000000
    10  C    5.334571   2.810019   2.429796   1.394471   0.000000
    11  C    4.436034   2.430666   2.792394   2.409469   1.393022
    12  C    3.221281   1.394837   2.407354   2.785144   2.423021
    13  C    5.072710   3.391950   3.518706   4.750865   5.645819
    14  C    5.739831   3.464675   3.446444   4.386219   5.170812
    15  C    7.115966   4.702343   4.403657   5.122204   5.985374
    16  C    7.807356   5.622435   5.228525   6.039670   7.064456
    17  C    7.324789   5.574051   5.275250   6.308586   7.416481
    18  C    6.006834   4.587037   4.515066   5.734147   6.783266
    19  S    9.574308   7.264234   6.721447   7.332120   8.364342
    20  O   10.285427   8.161684   7.810527   8.472687   9.392110
    21  O   10.174317   8.001921   7.344961   7.995435   9.165413
    22  C   10.206731   7.518929   6.795273   7.066577   8.006672
    23  H    4.497649   4.801078   5.469408   6.859981   7.569363
    24  H    0.960613   4.079331   5.236550   6.233106   6.280617
    25  H    4.726276   2.138899   1.070466   2.151876   3.396874
    26  H    6.223347   3.393598   2.150592   1.069634   2.138719
    27  H    6.301226   3.880181   3.400201   2.142300   1.070164
    28  H    4.915425   3.397373   3.862766   3.380442   2.139426
    29  H    2.791896   2.137958   3.376737   3.855206   3.389501
    30  H    5.390918   2.962987   3.141090   3.932446   4.471322
    31  H    7.770783   5.163095   4.810831   5.274025   6.003235
    32  H    8.107203   6.520075   6.169607   7.197465   8.365271
    33  H    5.881212   4.977334   4.993842   6.295476   7.357298
    34  H   11.140226   8.437249   7.623287   7.830033   8.810926
    35  H   10.455595   7.754929   7.146463   7.365220   8.157829
    36  H    9.589767   6.773435   5.939641   6.107094   7.068408
                   11         12         13         14         15
    11  C    0.000000
    12  C    1.404456   0.000000
    13  C    5.565709   4.557661   0.000000
    14  C    5.181638   4.411633   1.391123   0.000000
    15  C    6.208152   5.626722   2.403178   1.391968   0.000000
    16  C    7.360685   6.708449   2.769830   2.405880   1.384694
    17  C    7.631288   6.800063   2.395048   2.778630   2.403659
    18  C    6.829928   5.842774   1.380820   2.404554   2.772308
    19  S    8.807136   8.302658   4.545220   4.057303   2.765589
    20  O    9.687466   9.111272   5.254765   4.745030   3.503341
    21  O    9.700247   9.168824   5.221052   5.055184   3.930567
    22  C    8.630156   8.405699   5.452041   4.610794   3.257396
    23  H    7.099363   5.767682   2.905092   4.134098   5.104166
    24  H    5.347748   4.146558   5.680294   6.454040   7.827985
    25  H    3.862834   3.378637   3.072253   3.212429   4.028619
    26  H    3.378629   3.854765   5.228075   4.820111   5.313051
    27  H    2.141511   3.394490   6.615965   6.040093   6.721141
    28  H    1.070399   2.149552   6.496819   6.058837   7.072358
    29  H    2.146843   1.070077   4.925715   4.870150   6.157861
    30  H    4.346253   3.642287   2.140603   1.070118   2.141294
    31  H    6.289299   5.902501   3.373582   2.137197   1.069598
    32  H    8.626548   7.787957   3.363700   3.848438   3.372744
    33  H    7.344323   6.263977   2.127154   3.372988   3.842448
    34  H    9.524839   9.351874   6.376965   5.619670   4.280787
    35  H    8.697094   8.508762   5.780950   4.771323   3.421940
    36  H    7.782460   7.647753   5.086680   4.201805   2.986159
                   16         17         18         19         20
    16  C    0.000000
    17  C    1.390381   0.000000
    18  C    2.399689   1.381878   0.000000
    19  S    1.775917   2.726419   4.020584   0.000000
    20  O    2.692825   3.524494   4.749305   1.510187   0.000000
    21  O    2.687610   3.006927   4.365960   1.517265   2.481645
    22  C    2.921621   4.133921   5.258894   1.780906   2.663660
    23  H    5.132197   4.202167   2.953759   6.759814   7.124704
    24  H    8.446415   7.864631   6.508361  10.221054  10.870512
    25  H    4.607426   4.511912   3.808820   6.077795   7.253636
    26  H    6.104306   6.432278   6.037695   7.209942   8.456722
    27  H    7.810035   8.261094   7.723793   8.979028  10.027263
    28  H    8.282717   8.602860   7.798440   9.702300  10.515736
    29  H    7.243723   7.274622   6.230529   8.886203   9.567561
    30  H    3.376295   3.848739   3.374007   4.906626   5.525433
    31  H    2.130919   3.372729   3.841903   2.909116   3.520973
    32  H    2.137351   1.069813   2.129219   2.842462   3.559396
    33  H    3.369574   2.128236   1.070178   4.854518   5.532498
    34  H    3.781623   4.847606   6.054620   2.363712   3.137633
    35  H    3.375317   4.703134   5.751859   2.363192   2.706141
    36  H    2.913022   4.097108   5.046325   2.363523   3.514123
                   21         22         23         24         25
    21  O    0.000000
    22  C    2.698365   0.000000
    23  H    7.168491   8.035897   0.000000
    24  H   10.780284  10.957858   4.606745   0.000000
    25  H    6.536651   6.283446   5.126510   5.582215   0.000000
    26  H    7.760887   6.785700   7.510756   7.160209   2.474421
    27  H    9.783791   8.432142   8.630390   7.231941   4.282052
    28  H   10.660181   9.461100   7.893398   5.752749   4.933213
    29  H    9.798962   9.099374   5.671692   3.609416   4.263309
    30  H    6.004535   5.197804   4.577719   6.161007   3.253679
    31  H    4.261020   2.853070   6.070043   8.526882   4.585541
    32  H    2.607857   4.427420   4.690089   8.586736   5.321281
    33  H    4.958279   6.194221   2.473156   6.258720   4.244312
    34  H    2.748066   1.070245   8.903927  11.891362   7.054205
    35  H    3.542087   1.069513   8.350759  11.210464   6.768978
    36  H    3.173508   1.069783   7.835321  10.385541   5.452398
                   26         27         28         29         30
    26  H    0.000000
    27  H    2.464808   0.000000
    28  H    4.264976   2.466657   0.000000
    29  H    4.924833   4.275870   2.470242   0.000000
    30  H    4.516663   5.329232   5.145077   4.071695   0.000000
    31  H    5.403598   6.613278   7.070840   6.457959   2.465419
    32  H    7.241805   9.195726   9.615977   8.262511   4.918549
    33  H    6.620744   8.333464   8.315201   6.579706   4.256620
    34  H    7.438353   9.175652  10.364288  10.084196   6.233193
    35  H    7.165579   8.549899   9.446746   9.140572   5.211923
    36  H    5.764917   7.458704   8.628247   8.414414   4.705824
                   31         32         33         34         35
    31  H    0.000000
    32  H    4.256465   0.000000
    33  H    4.912033   2.450747   0.000000
    34  H    3.918803   4.950179   6.919400   0.000000
    35  H    2.750642   5.098514   6.741852   1.747436   0.000000
    36  H    2.577797   4.534727   6.000165   1.747071   1.746847
                   36
    36  H    0.000000
 Stoichiometry    C17H14O4S
 Framework group  C1[X(C17H14O4S)]
 Deg. of freedom   102
 Full point group                 C1      NOp   1
 Largest Abelian subgroup         C1      NOp   1
 Largest concise Abelian subgroup C1      NOp   1
                         Standard orientation:                         
 ---------------------------------------------------------------------
 Center     Atomic      Atomic             Coordinates (Angstroms)
 Number     Number       Type             X           Y           Z
 ---------------------------------------------------------------------
      1          6           0       -2.590117   -0.759909    0.013665
      2          6           0       -1.359816   -1.510155   -0.076496
      3          6           0       -1.743965   -2.861179   -0.122118
      4          6           0       -3.605063   -1.734754    0.006774
      5          8           0       -3.062513   -2.942750   -0.073343
      6          8           0       -4.980621   -1.478797    0.065569
      7          6           0       -2.797564    0.778811    0.094196
      8          6           0       -2.062061    1.556619    0.985932
      9          6           0       -2.271348    2.947007    1.050297
     10          6           0       -3.218906    3.553901    0.226669
     11          6           0       -3.958418    2.776189   -0.661473
     12          6           0       -3.746246    1.389355   -0.726054
     13          6           0        0.068950   -1.024133   -0.100254
     14          6           0        0.467351    0.087066   -0.836282
     15          6           0        1.804582    0.473299   -0.821742
     16          6           0        2.727588   -0.247411   -0.082814
     17          6           0        2.320272   -1.360053    0.644702
     18          6           0        0.993951   -1.747503    0.626226
     19         16           0        4.443137    0.209332   -0.036356
     20          8           0        5.171270   -0.418276   -1.201085
     21          8           0        5.048336   -0.262319    1.272602
     22          6           0        4.620635    1.976155   -0.172209
     23          1           0       -1.074162   -3.693476   -0.186662
     24          1           0       -5.462615   -2.308946    0.029323
     25          1           0       -1.336062    1.095696    1.623407
     26          1           0       -1.701270    3.540537    1.733561
     27          1           0       -3.376614    4.611194    0.276786
     28          1           0       -4.688813    3.235581   -1.294906
     29          1           0       -4.316585    0.796266   -1.410177
     30          1           0       -0.247890    0.640000   -1.408862
     31          1           0        2.119363    1.328248   -1.382112
     32          1           0        3.032352   -1.915723    1.218002
     33          1           0        0.682652   -2.610957    1.176518
     34          1           0        5.499643    2.287650    0.352902
     35          1           0        4.705671    2.247510   -1.203225
     36          1           0        3.763418    2.454427    0.253078
 ---------------------------------------------------------------------
 Rotational constants (GHZ):           0.4583093           0.1343775           0.1098412
 Standard basis: def2SVP (5D, 7F)
 There are   404 symmetry adapted cartesian basis functions of A   symmetry.
 There are   382 symmetry adapted basis functions of A   symmetry.
   382 basis functions,   660 primitive gaussians,   404 cartesian basis functions
    82 alpha electrons       82 beta electrons
       nuclear repulsion energy      1822.3252541642 Hartrees.
 NAtoms=   36 NActive=   36 NUniq=   36 SFac= 1.00D+00 NAtFMM=   60 NAOKFM=F Big=F
 Integral buffers will be    131072 words long.
 Raffenetti 2 integral format.
 Two-electron integral symmetry is turned on.
 Nuclear repulsion after empirical dispersion term =     1822.2406731067 Hartrees.
 ------------------------------------------------------------------------------
 Polarizable Continuum Model (PCM)
 =================================
 Model                : PCM.
 Atomic radii         : UFF (Universal Force Field).
 Polarization charges : Total charges.
 Charge compensation  : None.
 Solution method      : On-the-fly selection.
 Cavity type          : Scaled VdW (van der Waals Surface) (Alpha=1.100).
 Cavity algorithm     : GePol (No added spheres)
                        Default sphere list used, NSphG=   36.
                        Lebedev-Laikov grids with approx.  5.0 points / Ang**2.
                        Smoothing algorithm: York/Karplus (Gamma=1.0000).
                        Polarization charges: spherical gaussians, with
                                              point-specific exponents (IZeta= 3).
                        Self-potential: point-specific (ISelfS= 7).
                        Self-field    : sphere-specific E.n sum rule (ISelfD= 2).
 1st derivatives      : Analytical E(r).r(x)/FMM algorithm (CHGder, D1EAlg=3).
                        Cavity 1st derivative terms included.
 Solvent              : Water, Eps=  78.355300 Eps(inf)=   1.777849
 ------------------------------------------------------------------------------
 One-electron integrals computed using PRISM.
   1 Symmetry operations used in ECPInt.
 ECPInt:  NShTT=   15576 NPrTT=   58308 LenC2=   13490 LenP2D=   34386.
 LDataN:  DoStor=T MaxTD1= 4 Len=   56
 NBasis=   382 RedAO= T EigKep=  2.46D-04  NBF=   382
 NBsUse=   382 1.00D-06 EigRej= -1.00D+00 NBFU=   382
 ExpMin= 1.22D-01 ExpMax= 9.18D+03 ExpMxC= 1.38D+03 IAcc=3 IRadAn=         5 AccDes= 0.00D+00
 Harris functional with IExCor=  402 and IRadAn=       5 diagonalized for initial guess.
 HarFok:  IExCor=  402 AccDes= 0.00D+00 IRadAn=         5 IDoV= 1 UseB2=F ITyADJ=14
 ICtDFT=  3500011 ScaDFX=  1.000000  1.000000  1.000000  1.000000
 FoFCou: FMM=F IPFlag=           0 FMFlag=      100000 FMFlg1=           0
         NFxFlg=           0 DoJE=T BraDBF=F KetDBF=T FulRan=T
         wScrn=  0.000000 ICntrl=       500 IOpCl=  0 I1Cent=   200000004 NGrid=           0
         NMat0=    1 NMatS0=      1 NMatT0=    0 NMatD0=    1 NMtDS0=    0 NMtDT0=    0
 Petite list used in FoFCou.
 Requested convergence on RMS density matrix=1.00D-08 within 128 cycles.
 Requested convergence on MAX density matrix=1.00D-06.
 Requested convergence on             energy=1.00D-06.
 No special actions if energy rises.
 Inv3:  Mode=1 IEnd=    25684428.
 Iteration    1 A*A^-1 deviation from unit magnitude is 5.77D-15 for   2915.
 Iteration    1 A*A^-1 deviation from orthogonality  is 3.00D-15 for   2892   1438.
 Iteration    1 A^-1*A deviation from unit magnitude is 5.77D-15 for   2915.
 Iteration    1 A^-1*A deviation from orthogonality  is 1.53D-15 for   2919   2915.
 Error on total polarization charges =  0.01065
 SCF Done:  E(RB3LYP) =  -1354.49384601     A.U. after   14 cycles
            NFock= 14  Conv=0.35D-08     -V/T= 2.0078

 **********************************************************************

            Population analysis using the SCF density.

 **********************************************************************

 Orbital symmetries:
       Occupied  (A) (A) (A) (A) (A) (A) (A) (A) (A) (A) (A) (A)
                 (A) (A) (A) (A) (A) (A) (A) (A) (A) (A) (A) (A)
                 (A) (A) (A) (A) (A) (A) (A) (A) (A) (A) (A) (A)
                 (A) (A) (A) (A) (A) (A) (A) (A) (A) (A) (A) (A)
                 (A) (A) (A) (A) (A) (A) (A) (A) (A) (A) (A) (A)
                 (A) (A) (A) (A) (A) (A) (A) (A) (A) (A) (A) (A)
                 (A) (A) (A) (A) (A) (A) (A) (A) (A) (A)
       Virtual   (A) (A) (A) (A) (A) (A) (A) (A) (A) (A) (A) (A)
                 (A) (A) (A) (A) (A) (A) (A) (A) (A) (A) (A) (A)
                 (A) (A) (A) (A) (A) (A) (A) (A) (A) (A) (A) (A)
                 (A) (A) (A) (A) (A) (A) (A) (A) (A) (A) (A) (A)
                 (A) (A) (A) (A) (A) (A) (A) (A) (A) (A) (A) (A)
                 (A) (A) (A) (A) (A) (A) (A) (A) (A) (A) (A) (A)
                 (A) (A) (A) (A) (A) (A) (A) (A) (A) (A) (A) (A)
                 (A) (A) (A) (A) (A) (A) (A) (A) (A) (A) (A) (A)
                 (A) (A) (A) (A) (A) (A) (A) (A) (A) (A) (A) (A)
                 (A) (A) (A) (A) (A) (A) (A) (A) (A) (A) (A) (A)
                 (A) (A) (A) (A) (A) (A) (A) (A) (A) (A) (A) (A)
                 (A) (A) (A) (A) (A) (A) (A) (A) (A) (A) (A) (A)
                 (A) (A) (A) (A) (A) (A) (A) (A) (A) (A) (A) (A)
                 (A) (A) (A) (A) (A) (A) (A) (A) (A) (A) (A) (A)
                 (A) (A) (A) (A) (A) (A) (A) (A) (A) (A) (A) (A)
                 (A) (A) (A) (A) (A) (A) (A) (A) (A) (A) (A) (A)
                 (A) (A) (A) (A) (A) (A) (A) (A) (A) (A) (A) (A)
                 (A) (A) (A) (A) (A) (A) (A) (A) (A) (A) (A) (A)
                 (A) (A) (A) (A) (A) (A) (A) (A) (A) (A) (A) (A)
                 (A) (A) (A) (A) (A) (A) (A) (A) (A) (A) (A) (A)
                 (A) (A) (A) (A) (A) (A) (A) (A) (A) (A) (A) (A)
                 (A) (A) (A) (A) (A) (A) (A) (A) (A) (A) (A) (A)
                 (A) (A) (A) (A) (A) (A) (A) (A) (A) (A) (A) (A)
                 (A) (A) (A) (A) (A) (A) (A) (A) (A) (A) (A) (A)
                 (A) (A) (A) (A) (A) (A) (A) (A) (A) (A) (A) (A)
 The electronic state is 1-A.
 Alpha  occ. eigenvalues --  -89.06183 -19.22938 -19.18820 -19.11383 -19.10922
 Alpha  occ. eigenvalues --  -10.31015 -10.24401 -10.23165 -10.22323 -10.22218
 Alpha  occ. eigenvalues --  -10.21876 -10.21509 -10.21002 -10.20851 -10.20646
 Alpha  occ. eigenvalues --  -10.20494 -10.20340 -10.19289 -10.19255 -10.19218
 Alpha  occ. eigenvalues --  -10.19131 -10.19041  -8.12813  -6.09602  -6.09554
 Alpha  occ. eigenvalues --   -6.09520  -1.15202  -1.07334  -1.04975  -0.95354
 Alpha  occ. eigenvalues --   -0.88785  -0.85651  -0.82215  -0.79542  -0.77284
 Alpha  occ. eigenvalues --   -0.76844  -0.75105  -0.74199  -0.73833  -0.67642
 Alpha  occ. eigenvalues --   -0.63817  -0.62864  -0.61274  -0.60372  -0.59777
 Alpha  occ. eigenvalues --   -0.58106  -0.55593  -0.53285  -0.52278  -0.49911
 Alpha  occ. eigenvalues --   -0.49798  -0.49159  -0.47663  -0.47263  -0.46764
 Alpha  occ. eigenvalues --   -0.46363  -0.45588  -0.45414  -0.44829  -0.43471
 Alpha  occ. eigenvalues --   -0.42728  -0.42395  -0.41905  -0.41587  -0.40509
 Alpha  occ. eigenvalues --   -0.39104  -0.38216  -0.38016  -0.37655  -0.36731
 Alpha  occ. eigenvalues --   -0.35212  -0.34990  -0.32366  -0.32179  -0.30053
 Alpha  occ. eigenvalues --   -0.29555  -0.28398  -0.28176  -0.27199  -0.25938
 Alpha  occ. eigenvalues --   -0.24852  -0.21310
 Alpha virt. eigenvalues --   -0.05534  -0.03400  -0.01962  -0.01442   0.01158
 Alpha virt. eigenvalues --    0.03215   0.05202   0.05494   0.06347   0.07316
 Alpha virt. eigenvalues --    0.07851   0.08231   0.08807   0.09756   0.10813
 Alpha virt. eigenvalues --    0.11136   0.11738   0.12273   0.13201   0.13762
 Alpha virt. eigenvalues --    0.14433   0.14523   0.15310   0.15575   0.15840
 Alpha virt. eigenvalues --    0.16316   0.17464   0.19441   0.22854   0.24057
 Alpha virt. eigenvalues --    0.25185   0.26769   0.27518   0.27813   0.28150
 Alpha virt. eigenvalues --    0.28792   0.29966   0.30351   0.31410   0.31646
 Alpha virt. eigenvalues --    0.32357   0.35128   0.35702   0.36710   0.38433
 Alpha virt. eigenvalues --    0.38719   0.38833   0.40562   0.40836   0.41366
 Alpha virt. eigenvalues --    0.41830   0.42014   0.42933   0.43342   0.43979
 Alpha virt. eigenvalues --    0.44464   0.46137   0.46313   0.47099   0.47577
 Alpha virt. eigenvalues --    0.48383   0.49354   0.49949   0.50286   0.51191
 Alpha virt. eigenvalues --    0.51453   0.52780   0.53292   0.54540   0.54864
 Alpha virt. eigenvalues --    0.55313   0.56549   0.57411   0.57746   0.58342
 Alpha virt. eigenvalues --    0.58898   0.60333   0.60709   0.61792   0.62592
 Alpha virt. eigenvalues --    0.63070   0.63633   0.64603   0.64997   0.65327
 Alpha virt. eigenvalues --    0.65588   0.66270   0.66426   0.66963   0.67597
 Alpha virt. eigenvalues --    0.68270   0.68360   0.69173   0.69979   0.70457
 Alpha virt. eigenvalues --    0.71591   0.71930   0.72137   0.73222   0.73477
 Alpha virt. eigenvalues --    0.74355   0.74725   0.75487   0.76325   0.77414
 Alpha virt. eigenvalues --    0.77846   0.78309   0.79003   0.79698   0.80624
 Alpha virt. eigenvalues --    0.81361   0.82097   0.84375   0.84742   0.85476
 Alpha virt. eigenvalues --    0.87110   0.87323   0.91371   0.92168   0.93154
 Alpha virt. eigenvalues --    0.94191   0.95671   0.97206   0.97877   0.99114
 Alpha virt. eigenvalues --    1.01970   1.02903   1.04378   1.05128   1.06014
 Alpha virt. eigenvalues --    1.07386   1.08729   1.09231   1.09447   1.10269
 Alpha virt. eigenvalues --    1.12859   1.13735   1.15050   1.17943   1.19017
 Alpha virt. eigenvalues --    1.19239   1.20134   1.21501   1.22631   1.23094
 Alpha virt. eigenvalues --    1.24493   1.25415   1.25674   1.26357   1.27230
 Alpha virt. eigenvalues --    1.28158   1.28583   1.29854   1.30595   1.31525
 Alpha virt. eigenvalues --    1.33095   1.34080   1.35166   1.36951   1.37922
 Alpha virt. eigenvalues --    1.42377   1.45808   1.48057   1.49616   1.50378
 Alpha virt. eigenvalues --    1.51279   1.52124   1.57608   1.57870   1.59527
 Alpha virt. eigenvalues --    1.60232   1.60882   1.62768   1.64671   1.66281
 Alpha virt. eigenvalues --    1.67728   1.69235   1.70051   1.71315   1.71786
 Alpha virt. eigenvalues --    1.72843   1.74001   1.74196   1.74711   1.75478
 Alpha virt. eigenvalues --    1.75858   1.76378   1.77283   1.78000   1.78067
 Alpha virt. eigenvalues --    1.78907   1.79753   1.80696   1.81429   1.81784
 Alpha virt. eigenvalues --    1.83010   1.83886   1.84296   1.86278   1.87585
 Alpha virt. eigenvalues --    1.89368   1.91209   1.93394   1.94665   1.95383
 Alpha virt. eigenvalues --    1.95926   1.96524   1.96922   1.97490   1.98008
 Alpha virt. eigenvalues --    1.98290   2.00023   2.00695   2.01866   2.03143
 Alpha virt. eigenvalues --    2.07655   2.08765   2.10494   2.11046   2.11503
 Alpha virt. eigenvalues --    2.12045   2.14086   2.16092   2.17139   2.17799
 Alpha virt. eigenvalues --    2.18749   2.20575   2.21832   2.22881   2.24463
 Alpha virt. eigenvalues --    2.27135   2.28833   2.29505   2.30062   2.30269
 Alpha virt. eigenvalues --    2.32351   2.33045   2.33899   2.34433   2.35307
 Alpha virt. eigenvalues --    2.35960   2.36440   2.38517   2.41327   2.42144
 Alpha virt. eigenvalues --    2.43275   2.48723   2.51662   2.53278   2.56087
 Alpha virt. eigenvalues --    2.60910   2.61062   2.62048   2.63770   2.64192
 Alpha virt. eigenvalues --    2.64989   2.65147   2.65773   2.66075   2.66917
 Alpha virt. eigenvalues --    2.67253   2.69091   2.69713   2.71835   2.72257
 Alpha virt. eigenvalues --    2.75689   2.76638   2.76927   2.77460   2.79487
 Alpha virt. eigenvalues --    2.82598   2.86643   2.87901   2.88074   2.88851
 Alpha virt. eigenvalues --    2.89322   2.90177   2.92221   2.92573   2.92811
 Alpha virt. eigenvalues --    2.94876   2.95793   2.97811   2.99907   3.03042
 Alpha virt. eigenvalues --    3.09386   3.09672   3.14297   3.16066   3.21751
 Alpha virt. eigenvalues --    3.22931   3.24325   3.27074   3.31286   3.37748
 Alpha virt. eigenvalues --    3.47811   3.60139   3.60795   3.64947   3.75795
          Condensed to atoms (all electrons):
               1          2          3          4          5          6
     1  C    5.410733   0.410445  -0.016075   0.401944  -0.108298  -0.084169
     2  C    0.410445   5.141442   0.492136  -0.004523  -0.050784   0.002922
     3  C   -0.016075   0.492136   4.922780  -0.170421   0.355261   0.001213
     4  C    0.401944  -0.004523  -0.170421   4.842805   0.403739   0.410330
     5  O   -0.108298  -0.050784   0.355261   0.403739   7.604861  -0.035350
     6  O   -0.084169   0.002922   0.001213   0.410330  -0.035350   7.596505
     7  C    0.267591  -0.051447   0.015580  -0.069127   0.004002   0.005200
     8  C   -0.082727  -0.012446   0.000214   0.002896  -0.000054  -0.000153
     9  C    0.013205   0.000549   0.000009  -0.000205  -0.000000  -0.000006
    10  C   -0.000844  -0.000001   0.000000   0.000061   0.000000   0.000005
    11  C    0.015944   0.000032  -0.000004   0.000257  -0.000001  -0.000215
    12  C   -0.089874   0.003243  -0.000116  -0.008747   0.000107  -0.000955
    13  C   -0.073427   0.299788  -0.088160   0.020935   0.004819  -0.000032
    14  C   -0.012240  -0.087181   0.004229   0.000119  -0.000048  -0.000001
    15  C    0.000403   0.012475  -0.000254   0.000026   0.000000  -0.000000
    16  C    0.000048   0.001422  -0.000031   0.000000   0.000000   0.000000
    17  C   -0.000293   0.015750   0.001107  -0.000000  -0.000003  -0.000000
    18  C    0.007998  -0.088088  -0.011242  -0.000420  -0.000005   0.000000
    19  S   -0.000000   0.000009  -0.000000   0.000000   0.000000  -0.000000
    20  O    0.000000  -0.000000  -0.000000  -0.000000   0.000000   0.000000
    21  O   -0.000000   0.000000   0.000000  -0.000000  -0.000000  -0.000000
    22  C   -0.000000  -0.000000   0.000000  -0.000000  -0.000000  -0.000000
    23  H    0.015848  -0.050882   0.422368  -0.004179  -0.020721  -0.000087
    24  H    0.010683  -0.000005  -0.000294  -0.013474  -0.000437   0.320657
    25  H   -0.017884  -0.000602  -0.000071  -0.000234  -0.000011   0.000002
    26  H   -0.000355   0.000000  -0.000000  -0.000001  -0.000000   0.000000
    27  H    0.000025  -0.000000   0.000000   0.000000   0.000000   0.000000
    28  H   -0.000357  -0.000001  -0.000000  -0.000015  -0.000000  -0.000006
    29  H   -0.027583  -0.000582   0.000124   0.001125  -0.000035   0.007600
    30  H    0.000325  -0.019229  -0.000102  -0.000052  -0.000007   0.000001
    31  H   -0.000003  -0.000335   0.000001  -0.000000  -0.000000   0.000000
    32  H    0.000001  -0.000479  -0.000003  -0.000000  -0.000000   0.000000
    33  H   -0.000354  -0.020007   0.005794  -0.000052  -0.000123   0.000000
    34  H    0.000000  -0.000000  -0.000000   0.000000   0.000000   0.000000
    35  H    0.000000  -0.000000  -0.000000   0.000000  -0.000000   0.000000
    36  H    0.000000   0.000000  -0.000000  -0.000000   0.000000   0.000000
               7          8          9         10         11         12
     1  C    0.267591  -0.082727   0.013205  -0.000844   0.015944  -0.089874
     2  C   -0.051447  -0.012446   0.000549  -0.000001   0.000032   0.003243
     3  C    0.015580   0.000214   0.000009   0.000000  -0.000004  -0.000116
     4  C   -0.069127   0.002896  -0.000205   0.000061   0.000257  -0.008747
     5  O    0.004002  -0.000054  -0.000000   0.000000  -0.000001   0.000107
     6  O    0.005200  -0.000153  -0.000006   0.000005  -0.000215  -0.000955
     7  C    5.383182   0.217101   0.138962  -0.184351   0.137651   0.239644
     8  C    0.217101   5.193574   0.230054   0.124108  -0.171050   0.089072
     9  C    0.138962   0.230054   5.128623   0.205275   0.128939  -0.167686
    10  C   -0.184351   0.124108   0.205275   5.184769   0.198634   0.125316
    11  C    0.137651  -0.171050   0.128939   0.198634   5.141805   0.223511
    12  C    0.239644   0.089072  -0.167686   0.125316   0.223511   5.179698
    13  C   -0.015998   0.000248  -0.000256  -0.000014  -0.000007   0.000093
    14  C    0.000533   0.001223   0.000200  -0.000038   0.000015  -0.000860
    15  C   -0.000358   0.000045  -0.000140  -0.000002  -0.000001   0.000015
    16  C   -0.000023  -0.000054  -0.000004   0.000000   0.000000  -0.000000
    17  C   -0.000012   0.000034  -0.000001   0.000000  -0.000000  -0.000000
    18  C    0.000125  -0.000676   0.000003  -0.000000   0.000000  -0.000003
    19  S   -0.000000   0.000000   0.000000   0.000000  -0.000000   0.000000
    20  O   -0.000000   0.000000   0.000000  -0.000000  -0.000000  -0.000000
    21  O    0.000000  -0.000000   0.000000  -0.000000  -0.000000   0.000000
    22  C   -0.000000  -0.000000  -0.000000   0.000000   0.000000   0.000000
    23  H   -0.000105  -0.000001  -0.000000   0.000000  -0.000000   0.000005
    24  H   -0.000333   0.000017  -0.000000  -0.000000   0.000007  -0.000125
    25  H   -0.077116   0.455537  -0.073933   0.015948  -0.002325   0.017069
    26  H    0.017611  -0.079585   0.454465  -0.081457   0.016471  -0.002068
    27  H   -0.002119   0.016203  -0.079426   0.454765  -0.079511   0.016157
    28  H    0.017436  -0.002015   0.016294  -0.081510   0.454107  -0.079108
    29  H   -0.073170   0.018873  -0.002596   0.016686  -0.079014   0.454703
    30  H    0.003525   0.000461  -0.000582   0.000089   0.000138   0.000775
    31  H    0.000017   0.000021   0.000015  -0.000001  -0.000000  -0.000002
    32  H    0.000000  -0.000000  -0.000000   0.000000  -0.000000   0.000000
    33  H   -0.000046  -0.000016   0.000001  -0.000000   0.000000  -0.000000
    34  H   -0.000000   0.000000  -0.000000  -0.000000   0.000000  -0.000000
    35  H    0.000000  -0.000000   0.000000  -0.000000   0.000000  -0.000000
    36  H    0.000000   0.000001   0.000000  -0.000000   0.000000  -0.000000
              13         14         15         16         17         18
     1  C   -0.073427  -0.012240   0.000403   0.000048  -0.000293   0.007998
     2  C    0.299788  -0.087181   0.012475   0.001422   0.015750  -0.088088
     3  C   -0.088160   0.004229  -0.000254  -0.000031   0.001107  -0.011242
     4  C    0.020935   0.000119   0.000026   0.000000  -0.000000  -0.000420
     5  O    0.004819  -0.000048   0.000000   0.000000  -0.000003  -0.000005
     6  O   -0.000032  -0.000001  -0.000000   0.000000  -0.000000   0.000000
     7  C   -0.015998   0.000533  -0.000358  -0.000023  -0.000012   0.000125
     8  C    0.000248   0.001223   0.000045  -0.000054   0.000034  -0.000676
     9  C   -0.000256   0.000200  -0.000140  -0.000004  -0.000001   0.000003
    10  C   -0.000014  -0.000038  -0.000002   0.000000   0.000000  -0.000000
    11  C   -0.000007   0.000015  -0.000001   0.000000  -0.000000   0.000000
    12  C    0.000093  -0.000860   0.000015  -0.000000  -0.000000  -0.000003
    13  C    5.477699   0.197090   0.146166  -0.228200   0.153893   0.174867
    14  C    0.197090   5.124657   0.274039   0.132020  -0.153468   0.083192
    15  C    0.146166   0.274039   5.148388   0.126556   0.086510  -0.155983
    16  C   -0.228200   0.132020   0.126556   5.913534   0.091890   0.138513
    17  C    0.153893  -0.153468   0.086510   0.091890   5.237394   0.165995
    18  C    0.174867   0.083192  -0.155983   0.138513   0.165995   5.255863
    19  S    0.000456   0.002055  -0.060223   0.177976  -0.022403   0.004239
    20  O   -0.000022  -0.000005   0.000757  -0.031727  -0.005009  -0.000114
    21  O   -0.000036  -0.000012   0.003199  -0.049466   0.001885   0.001438
    22  C   -0.000061  -0.000339  -0.003904  -0.072217   0.006916   0.000065
    23  H   -0.010827  -0.000743   0.000026  -0.000028   0.000116   0.005124
    24  H    0.000009   0.000000   0.000000  -0.000000   0.000000  -0.000000
    25  H    0.001947   0.000536  -0.000537   0.000111  -0.000018   0.000387
    26  H    0.000004   0.000026   0.000007  -0.000001  -0.000000  -0.000001
    27  H    0.000000  -0.000001   0.000000  -0.000000   0.000000  -0.000000
    28  H    0.000001  -0.000001  -0.000000   0.000000  -0.000000   0.000000
    29  H   -0.000056  -0.000025   0.000002  -0.000000  -0.000000  -0.000000
    30  H   -0.079152   0.465483  -0.075543   0.018822  -0.002611   0.017030
    31  H    0.016986  -0.060453   0.458527  -0.089432   0.013912  -0.001627
    32  H    0.018730  -0.001877   0.014622  -0.103882   0.450822  -0.054326
    33  H   -0.088383   0.017858  -0.002546   0.020544  -0.076300   0.468424
    34  H    0.000003  -0.000005  -0.000070   0.005322  -0.000031  -0.000008
    35  H    0.000002   0.000245   0.002773  -0.002331  -0.000829  -0.000002
    36  H    0.000005   0.000371   0.001952   0.002118  -0.000224  -0.000019
              19         20         21         22         23         24
     1  C   -0.000000   0.000000  -0.000000  -0.000000   0.015848   0.010683
     2  C    0.000009  -0.000000   0.000000  -0.000000  -0.050882  -0.000005
     3  C   -0.000000  -0.000000   0.000000   0.000000   0.422368  -0.000294
     4  C    0.000000  -0.000000  -0.000000  -0.000000  -0.004179  -0.013474
     5  O    0.000000   0.000000  -0.000000  -0.000000  -0.020721  -0.000437
     6  O   -0.000000   0.000000  -0.000000  -0.000000  -0.000087   0.320657
     7  C   -0.000000  -0.000000   0.000000  -0.000000  -0.000105  -0.000333
     8  C    0.000000   0.000000  -0.000000  -0.000000  -0.000001   0.000017
     9  C    0.000000   0.000000   0.000000  -0.000000  -0.000000  -0.000000
    10  C    0.000000  -0.000000  -0.000000   0.000000   0.000000  -0.000000
    11  C   -0.000000  -0.000000  -0.000000   0.000000  -0.000000   0.000007
    12  C    0.000000  -0.000000   0.000000   0.000000   0.000005  -0.000125
    13  C    0.000456  -0.000022  -0.000036  -0.000061  -0.010827   0.000009
    14  C    0.002055  -0.000005  -0.000012  -0.000339  -0.000743   0.000000
    15  C   -0.060223   0.000757   0.003199  -0.003904   0.000026   0.000000
    16  C    0.177976  -0.031727  -0.049466  -0.072217  -0.000028  -0.000000
    17  C   -0.022403  -0.005009   0.001885   0.006916   0.000116   0.000000
    18  C    0.004239  -0.000114   0.001438   0.000065   0.005124  -0.000000
    19  S   14.094571   0.382580   0.377160   0.302660  -0.000000   0.000000
    20  O    0.382580   8.310152  -0.053093  -0.049558   0.000000  -0.000000
    21  O    0.377160  -0.053093   8.297689  -0.044324  -0.000000   0.000000
    22  C    0.302660  -0.049558  -0.044324   4.764069   0.000000   0.000000
    23  H   -0.000000   0.000000  -0.000000   0.000000   0.624823  -0.000051
    24  H    0.000000  -0.000000   0.000000   0.000000  -0.000051   0.470763
    25  H    0.000000   0.000000   0.000000   0.000000   0.000005  -0.000001
    26  H   -0.000000  -0.000000  -0.000000  -0.000000   0.000000   0.000000
    27  H    0.000000  -0.000000   0.000000   0.000000  -0.000000  -0.000000
    28  H   -0.000000   0.000000  -0.000000  -0.000000   0.000000  -0.000000
    29  H   -0.000000  -0.000000   0.000000   0.000000   0.000002  -0.000062
    30  H   -0.000140   0.000001   0.000001   0.000016  -0.000022  -0.000000
    31  H   -0.012672   0.000733   0.000122   0.006613  -0.000000   0.000000
    32  H   -0.007224   0.000517   0.018186   0.000932   0.000018  -0.000000
    33  H   -0.000214   0.000003  -0.000012   0.000001  -0.000024  -0.000000
    34  H   -0.004216   0.000424   0.005882   0.370799   0.000000  -0.000000
    35  H   -0.000758   0.007325   0.003218   0.354541  -0.000000  -0.000000
    36  H   -0.007990   0.003027   0.001174   0.363538   0.000000  -0.000000
              25         26         27         28         29         30
     1  C   -0.017884  -0.000355   0.000025  -0.000357  -0.027583   0.000325
     2  C   -0.000602   0.000000  -0.000000  -0.000001  -0.000582  -0.019229
     3  C   -0.000071  -0.000000   0.000000  -0.000000   0.000124  -0.000102
     4  C   -0.000234  -0.000001   0.000000  -0.000015   0.001125  -0.000052
     5  O   -0.000011  -0.000000   0.000000  -0.000000  -0.000035  -0.000007
     6  O    0.000002   0.000000   0.000000  -0.000006   0.007600   0.000001
     7  C   -0.077116   0.017611  -0.002119   0.017436  -0.073170   0.003525
     8  C    0.455537  -0.079585   0.016203  -0.002015   0.018873   0.000461
     9  C   -0.073933   0.454465  -0.079426   0.016294  -0.002596  -0.000582
    10  C    0.015948  -0.081457   0.454765  -0.081510   0.016686   0.000089
    11  C   -0.002325   0.016471  -0.079511   0.454107  -0.079014   0.000138
    12  C    0.017069  -0.002068   0.016157  -0.079108   0.454703   0.000775
    13  C    0.001947   0.000004   0.000000   0.000001  -0.000056  -0.079152
    14  C    0.000536   0.000026  -0.000001  -0.000001  -0.000025   0.465483
    15  C   -0.000537   0.000007   0.000000  -0.000000   0.000002  -0.075543
    16  C    0.000111  -0.000001  -0.000000   0.000000  -0.000000   0.018822
    17  C   -0.000018  -0.000000   0.000000  -0.000000  -0.000000  -0.002611
    18  C    0.000387  -0.000001  -0.000000   0.000000  -0.000000   0.017030
    19  S    0.000000  -0.000000   0.000000  -0.000000  -0.000000  -0.000140
    20  O    0.000000  -0.000000  -0.000000   0.000000  -0.000000   0.000001
    21  O    0.000000  -0.000000   0.000000  -0.000000   0.000000   0.000001
    22  C    0.000000  -0.000000   0.000000  -0.000000   0.000000   0.000016
    23  H    0.000005   0.000000  -0.000000   0.000000   0.000002  -0.000022
    24  H   -0.000001   0.000000  -0.000000  -0.000000  -0.000062  -0.000000
    25  H    0.717391  -0.013604  -0.000282   0.000033  -0.000238  -0.000073
    26  H   -0.013604   0.715814  -0.014233  -0.000332   0.000029  -0.000021
    27  H   -0.000282  -0.014233   0.715394  -0.014115  -0.000292  -0.000001
    28  H    0.000033  -0.000332  -0.014115   0.716158  -0.013657  -0.000002
    29  H   -0.000238   0.000029  -0.000292  -0.013657   0.725974   0.000025
    30  H   -0.000073  -0.000021  -0.000001  -0.000002   0.000025   0.689953
    31  H   -0.000016   0.000001   0.000000   0.000000  -0.000000  -0.013462
    32  H   -0.000003   0.000000   0.000000  -0.000000   0.000000   0.000028
    33  H    0.000019   0.000000  -0.000000  -0.000000  -0.000000  -0.000206
    34  H   -0.000000  -0.000000  -0.000000   0.000000  -0.000000  -0.000001
    35  H    0.000000  -0.000000  -0.000000   0.000000  -0.000000  -0.000004
    36  H    0.000000   0.000000  -0.000000   0.000000  -0.000000  -0.000006
              31         32         33         34         35         36
     1  C   -0.000003   0.000001  -0.000354   0.000000   0.000000   0.000000
     2  C   -0.000335  -0.000479  -0.020007  -0.000000  -0.000000   0.000000
     3  C    0.000001  -0.000003   0.005794  -0.000000  -0.000000  -0.000000
     4  C   -0.000000  -0.000000  -0.000052   0.000000   0.000000  -0.000000
     5  O   -0.000000  -0.000000  -0.000123   0.000000  -0.000000   0.000000
     6  O    0.000000   0.000000   0.000000   0.000000   0.000000   0.000000
     7  C    0.000017   0.000000  -0.000046  -0.000000   0.000000   0.000000
     8  C    0.000021  -0.000000  -0.000016   0.000000  -0.000000   0.000001
     9  C    0.000015  -0.000000   0.000001  -0.000000   0.000000   0.000000
    10  C   -0.000001   0.000000  -0.000000  -0.000000  -0.000000  -0.000000
    11  C   -0.000000  -0.000000   0.000000   0.000000   0.000000   0.000000
    12  C   -0.000002   0.000000  -0.000000  -0.000000  -0.000000  -0.000000
    13  C    0.016986   0.018730  -0.088383   0.000003   0.000002   0.000005
    14  C   -0.060453  -0.001877   0.017858  -0.000005   0.000245   0.000371
    15  C    0.458527   0.014622  -0.002546  -0.000070   0.002773   0.001952
    16  C   -0.089432  -0.103882   0.020544   0.005322  -0.002331   0.002118
    17  C    0.013912   0.450822  -0.076300  -0.000031  -0.000829  -0.000224
    18  C   -0.001627  -0.054326   0.468424  -0.000008  -0.000002  -0.000019
    19  S   -0.012672  -0.007224  -0.000214  -0.004216  -0.000758  -0.007990
    20  O    0.000733   0.000517   0.000003   0.000424   0.007325   0.003027
    21  O    0.000122   0.018186  -0.000012   0.005882   0.003218   0.001174
    22  C    0.006613   0.000932   0.000001   0.370799   0.354541   0.363538
    23  H   -0.000000   0.000018  -0.000024   0.000000  -0.000000   0.000000
    24  H    0.000000  -0.000000  -0.000000  -0.000000  -0.000000  -0.000000
    25  H   -0.000016  -0.000003   0.000019  -0.000000   0.000000   0.000000
    26  H    0.000001   0.000000   0.000000  -0.000000  -0.000000   0.000000
    27  H    0.000000   0.000000  -0.000000  -0.000000  -0.000000  -0.000000
    28  H    0.000000  -0.000000  -0.000000   0.000000   0.000000   0.000000
    29  H   -0.000000   0.000000  -0.000000  -0.000000  -0.000000  -0.000000
    30  H   -0.013462   0.000028  -0.000206  -0.000001  -0.000004  -0.000006
    31  H    0.680615  -0.000273   0.000031  -0.000017   0.000604  -0.000734
    32  H   -0.000273   0.686738  -0.014664  -0.000040  -0.000052  -0.000077
    33  H    0.000031  -0.014664   0.700845  -0.000000   0.000000  -0.000000
    34  H   -0.000017  -0.000040  -0.000000   0.545576  -0.005954  -0.005416
    35  H    0.000604  -0.000052   0.000000  -0.005954   0.572625  -0.010227
    36  H   -0.000734  -0.000077  -0.000000  -0.005416  -0.010227   0.574724
 Mulliken charges:
               1
     1  C   -0.040709
     2  C    0.006378
     3  C    0.065960
     4  C    0.187214
     5  O   -0.156912
     6  O   -0.223461
     7  C    0.026043
     8  C   -0.000903
     9  C    0.008241
    10  C    0.022563
    11  C    0.014616
    12  C    0.000139
    13  C    0.070892
    14  C    0.013404
    15  C    0.023072
    16  C   -0.051483
    17  C    0.034977
    18  C   -0.010748
    19  S    0.774133
    20  O   -0.565991
    21  O   -0.563011
    22  C    0.000254
    23  H    0.019335
    24  H    0.212648
    25  H   -0.022038
    26  H   -0.012770
    27  H   -0.012564
    28  H   -0.012910
    29  H   -0.027830
    30  H   -0.005455
    31  H    0.000829
    32  H   -0.007695
    33  H   -0.010572
    34  H    0.087751
    35  H    0.078823
    36  H    0.077781
 Sum of Mulliken charges =  -0.00000
 Mulliken charges with hydrogens summed into heavy atoms:
               1
     1  C   -0.040709
     2  C    0.006378
     3  C    0.085295
     4  C    0.187214
     5  O   -0.156912
     6  O   -0.010813
     7  C    0.026043
     8  C   -0.022941
     9  C   -0.004528
    10  C    0.009999
    11  C    0.001706
    12  C   -0.027691
    13  C    0.070892
    14  C    0.007948
    15  C    0.023901
    16  C   -0.051483
    17  C    0.027282
    18  C   -0.021320
    19  S    0.774133
    20  O   -0.565991
    21  O   -0.563011
    22  C    0.244610
 Electronic spatial extent (au):  <R**2>=           9252.4119
 Charge=             -0.0000 electrons
 Dipole moment (field-independent basis, Debye):
    X=             -7.1536    Y=              2.3759    Z=             -0.6217  Tot=              7.5634
 Quadrupole moment (field-independent basis, Debye-Ang):
   XX=           -161.1039   YY=           -108.3734   ZZ=           -138.6663
   XY=             30.8831   XZ=              3.3740   YZ=             -3.9684
 Traceless Quadrupole moment (field-independent basis, Debye-Ang):
   XX=            -25.0560   YY=             27.6745   ZZ=             -2.6185
   XY=             30.8831   XZ=              3.3740   YZ=             -3.9684
 Octapole moment (field-independent basis, Debye-Ang**2):
  XXX=           -310.5557  YYY=            -14.1220  ZZZ=             -2.3135  XYY=             -6.7988
  XXY=             51.7419  XXZ=            -25.3126  XZZ=            -22.6111  YZZ=              2.8521
  YYZ=              7.2714  XYZ=             -5.3814
 Hexadecapole moment (field-independent basis, Debye-Ang**3):
 XXXX=          -9683.7751 YYYY=          -2388.8600 ZZZZ=           -494.2194 XXXY=           1016.6712
 XXXZ=            122.0039 YYYX=            136.8298 YYYZ=              1.3278 ZZZX=              1.5540
 ZZZY=            -10.3249 XXYY=          -1508.1695 XXZZ=          -1731.7605 YYZZ=           -514.3710
 XXYZ=            -81.2728 YYXZ=             17.7673 ZZXY=             49.6872
 N-N= 1.822240673107D+03 E-N=-6.815092533328D+03  KE= 1.344073901168D+03
   1 Symmetry operations used in ECPInt.
 ECPInt:  NShTT=   15576 NPrTT=   58308 LenC2=   13490 LenP2D=   34386.
 LDataN:  DoStor=T MaxTD1= 5 Len=  102
 D1PCM: PCM CHGder 1st derivatives, ID1Alg=3 FixD1E=F DoIter=F DoCFld=F I1PDM=0.
 Calling FoFJK, ICntrl=      2127 FMM=F ISym2X=0 I1Cent= 0 IOpClX= 0 NMat=1 NMatS=1 NMatT=0.
 ***** Axes restored to original set *****
 -------------------------------------------------------------------
 Center     Atomic                   Forces (Hartrees/Bohr)
 Number     Number              X              Y              Z
 -------------------------------------------------------------------
      1        6          -0.009246642    0.024066942   -0.016496243
      2        6           0.000175083   -0.011804562    0.006809706
      3        6           0.059927702    0.034262557   -0.011043972
      4        6           0.010101066    0.050100532   -0.026778804
      5        8          -0.051522919   -0.013076028    0.002386852
      6        8           0.041898285   -0.025610236    0.017340056
      7        6          -0.013815096   -0.041609773    0.019771134
      8        6           0.001949173    0.014222672   -0.012637902
      9        6          -0.009732200   -0.017292847   -0.001075821
     10        6          -0.001933367   -0.010835396    0.006480590
     11        6           0.002400270   -0.011128544    0.014684329
     12        6           0.006742500    0.016134332   -0.003673246
     13        6          -0.045740283    0.002145113   -0.010246111
     14        6           0.009933839   -0.000659180    0.006688357
     15        6          -0.005837736    0.000249796   -0.003864302
     16        6          -0.000469989    0.008452289    0.001717608
     17        6           0.004306960   -0.002585543    0.001194448
     18        6           0.014269962   -0.003121978    0.002950811
     19       16           0.042883160   -0.056242452    0.046463765
     20        8          -0.016754032    0.027640774   -0.004443933
     21        8          -0.016453627    0.013217296   -0.033413586
     22        6          -0.014175967    0.000575968   -0.002684772
     23        1          -0.011344164   -0.014862214    0.005392006
     24        1          -0.008363864   -0.006606108    0.002804913
     25        1           0.006401341   -0.003533717    0.013646239
     26        1           0.010629595    0.010032701    0.008131171
     27        1           0.003685419    0.014270222   -0.006975919
     28        1          -0.007013177    0.003158102   -0.014169934
     29        1          -0.009910224   -0.009878779   -0.006615200
     30        1          -0.005020018    0.005267759   -0.012701389
     31        1           0.008350984    0.005396200   -0.013180487
     32        1           0.007090098   -0.004082422    0.013523136
     33        1          -0.008212593   -0.003178805    0.011906993
     34        1           0.014202054   -0.000963710    0.015218324
     35        1           0.002617217   -0.009144680   -0.017852051
     36        1          -0.012018811    0.017023720    0.000743233
 -------------------------------------------------------------------
 Cartesian Forces:  Max     0.059927702 RMS     0.018134508

 GradGradGradGradGradGradGradGradGradGradGradGradGradGradGradGradGradGrad
 Berny optimization.
 FormGI is forming the generalized inverse of G from B-inverse, IUseBI=4.
 Internal  Forces:  Max     0.048646446 RMS     0.009551650
 Search for a local minimum.
 Step number   1 out of a maximum of  199
 All quantities printed in internal units (Hartrees-Bohrs-Radians)
 Mixed Optimization -- RFO/linear search
 Second derivative matrix not updated -- first step.
 ITU=  0
     Eigenvalues ---    0.00230   0.00623   0.00642   0.00689   0.01187
     Eigenvalues ---    0.01369   0.01558   0.01618   0.01686   0.01777
     Eigenvalues ---    0.01787   0.02053   0.02072   0.02080   0.02085
     Eigenvalues ---    0.02093   0.02119   0.02125   0.02169   0.02172
     Eigenvalues ---    0.02201   0.02225   0.02237   0.02247   0.02257
     Eigenvalues ---    0.02278   0.02310   0.02336   0.02446   0.05972
     Eigenvalues ---    0.05973   0.06902   0.08211   0.13780   0.16000
     Eigenvalues ---    0.16000   0.16000   0.16000   0.16000   0.16000
     Eigenvalues ---    0.16000   0.16000   0.16000   0.16000   0.16000
     Eigenvalues ---    0.16000   0.16000   0.16000   0.19540   0.21999
     Eigenvalues ---    0.22000   0.22000   0.22984   0.23485   0.23629
     Eigenvalues ---    0.23998   0.24994   0.24995   0.24997   0.24999
     Eigenvalues ---    0.25000   0.25000   0.25000   0.25000   0.27253
     Eigenvalues ---    0.27680   0.28110   0.31415   0.37171   0.37180
     Eigenvalues ---    0.37193   0.37199   0.37208   0.37209   0.37215
     Eigenvalues ---    0.37220   0.37254   0.37258   0.37276   0.37281
     Eigenvalues ---    0.37292   0.37613   0.40544   0.40978   0.42530
     Eigenvalues ---    0.42986   0.43708   0.44371   0.44646   0.45554
     Eigenvalues ---    0.46131   0.46519   0.46778   0.47186   0.47437
     Eigenvalues ---    0.48378   0.48721   0.55342   0.57057   0.59207
     Eigenvalues ---    0.71232   0.73400
 RFO step:  Lambda=-4.64988136D-02 EMin= 2.30000000D-03
 Linear search not attempted -- first point.
 Maximum step size (   0.300) exceeded in Quadratic search.
    -- Step size scaled by   0.863
 Iteration  1 RMS(Cart)=  0.09392560 RMS(Int)=  0.00129127
 Iteration  2 RMS(Cart)=  0.00225135 RMS(Int)=  0.00025969
 Iteration  3 RMS(Cart)=  0.00000357 RMS(Int)=  0.00025968
 Iteration  4 RMS(Cart)=  0.00000000 RMS(Int)=  0.00025968
 Variable       Old X    -DE/DX   Delta X   Delta X   Delta X     New X
                                 (Linear)    (Quad)   (Total)
    R1        2.72844  -0.00170   0.00000  -0.00706  -0.00717   2.72127
    R2        2.65941  -0.02561   0.00000  -0.04714  -0.04711   2.61229
    R3        2.93801  -0.04182   0.00000  -0.11315  -0.11315   2.82486
    R4        2.65567  -0.02234   0.00000  -0.03866  -0.03875   2.61692
    R5        2.85227  -0.02076   0.00000  -0.04968  -0.04968   2.80259
    R6        2.49816   0.02777   0.00000   0.03882   0.03888   2.53704
    R7        2.02256   0.01156   0.00000   0.02385   0.02385   2.04640
    R8        2.50703   0.00641   0.00000   0.01001   0.01014   2.51717
    R9        2.64638  -0.04865   0.00000  -0.08363  -0.08363   2.56275
   R10        1.81530   0.01101   0.00000   0.01584   0.01584   1.83114
   R11        2.63286   0.00831   0.00000   0.01410   0.01410   2.64696
   R12        2.63586   0.00749   0.00000   0.01293   0.01293   2.64879
   R13        2.65984  -0.00806   0.00000  -0.01433  -0.01433   2.64551
   R14        2.02289   0.01548   0.00000   0.03194   0.03194   2.05483
   R15        2.63517   0.00444   0.00000   0.00720   0.00720   2.64237
   R16        2.02131   0.01670   0.00000   0.03438   0.03438   2.05570
   R17        2.63243   0.00636   0.00000   0.01053   0.01053   2.64296
   R18        2.02232   0.01631   0.00000   0.03362   0.03362   2.05594
   R19        2.65404  -0.00575   0.00000  -0.00987  -0.00987   2.64417
   R20        2.02276   0.01611   0.00000   0.03323   0.03323   2.05599
   R21        2.02215   0.01548   0.00000   0.03190   0.03190   2.05406
   R22        2.62884   0.01276   0.00000   0.02139   0.02139   2.65023
   R23        2.60937   0.02649   0.00000   0.04338   0.04339   2.65276
   R24        2.63044   0.00301   0.00000   0.00438   0.00438   2.63482
   R25        2.02223   0.01462   0.00000   0.03015   0.03015   2.05238
   R26        2.61669   0.01471   0.00000   0.02326   0.02326   2.63995
   R27        2.02125   0.01636   0.00000   0.03368   0.03368   2.05493
   R28        2.62744   0.00757   0.00000   0.01248   0.01248   2.63992
   R29        3.35600   0.00129   0.00000   0.00340   0.00340   3.35940
   R30        2.61137   0.01107   0.00000   0.01852   0.01853   2.62990
   R31        2.02165   0.01571   0.00000   0.03236   0.03236   2.05401
   R32        2.02234   0.01465   0.00000   0.03021   0.03021   2.05256
   R33        2.85384  -0.02834   0.00000  -0.03134  -0.03134   2.82250
   R34        2.86721  -0.03477   0.00000  -0.03955  -0.03955   2.82767
   R35        3.36542   0.00340   0.00000   0.00907   0.00907   3.37450
   R36        2.02247   0.01915   0.00000   0.03950   0.03950   2.06197
   R37        2.02109   0.01982   0.00000   0.04078   0.04078   2.06187
   R38        2.02160   0.02073   0.00000   0.04268   0.04268   2.06428
[...]
    33  H   -0.000223  -0.019799   0.005562  -0.000027  -0.000095   0.000000
    34  H    0.000000   0.000000  -0.000000   0.000000   0.000000   0.000000
    35  H    0.000000  -0.000000   0.000000  -0.000000   0.000000  -0.000000
    36  H   -0.000000  -0.000000  -0.000000   0.000000  -0.000000   0.000000
               7          8          9         10         11         12
     1  C    0.245535  -0.088703   0.014876  -0.000465   0.018029  -0.094140
     2  C   -0.059544  -0.017249   0.000668   0.000011  -0.000146   0.007437
     3  C    0.020427   0.000344   0.000022  -0.000001   0.000003  -0.000301
     4  C   -0.088239   0.005248  -0.000340   0.000072   0.000339  -0.014812
     5  O    0.005008  -0.000082   0.000000   0.000000  -0.000001   0.000034
     6  O    0.007122  -0.000049  -0.000005   0.000002  -0.000172  -0.003055
     7  C    5.413479   0.240989   0.119737  -0.169073   0.120307   0.253227
     8  C    0.240989   5.205791   0.255902   0.108582  -0.161263   0.069887
     9  C    0.119737   0.255902   5.111790   0.222522   0.118289  -0.156746
    10  C   -0.169073   0.108582   0.222522   5.184678   0.218694   0.110730
    11  C    0.120307  -0.161263   0.118289   0.218694   5.128567   0.240622
    12  C    0.253227   0.069887  -0.156746   0.110730   0.240622   5.211080
    13  C   -0.024104   0.000185  -0.000376  -0.000024  -0.000020   0.000358
    14  C   -0.000609   0.001335   0.000125  -0.000036   0.000033  -0.000935
    15  C   -0.000569   0.000111  -0.000060  -0.000012  -0.000000  -0.000006
    16  C   -0.000034  -0.000084  -0.000016   0.000001   0.000000   0.000000
    17  C   -0.000011   0.000006   0.000001   0.000000  -0.000000  -0.000000
    18  C    0.000465  -0.001028  -0.000010  -0.000000  -0.000000   0.000003
    19  S   -0.000000  -0.000000   0.000000  -0.000000   0.000000   0.000000
    20  O    0.000000  -0.000000   0.000000  -0.000000   0.000000  -0.000000
    21  O    0.000000  -0.000000   0.000000  -0.000000   0.000000  -0.000000
    22  C   -0.000000  -0.000000  -0.000000   0.000000  -0.000000   0.000000
    23  H   -0.000106   0.000001  -0.000000   0.000000  -0.000000   0.000004
    24  H   -0.000552   0.000028  -0.000001   0.000000   0.000004   0.000009
    25  H   -0.068927   0.444193  -0.067442   0.015067  -0.002074   0.015448
    26  H    0.016670  -0.074937   0.446918  -0.078846   0.015111  -0.001775
    27  H   -0.001735   0.015432  -0.075492   0.446356  -0.075398   0.015041
    28  H    0.016362  -0.001684   0.014971  -0.077981   0.445542  -0.074190
    29  H   -0.067326   0.016876  -0.002325   0.015484  -0.073601   0.445988
    30  H    0.002713   0.001823  -0.001207   0.000176   0.000012   0.000960
    31  H    0.000044   0.000017   0.000030  -0.000004   0.000000  -0.000004
    32  H    0.000000  -0.000000  -0.000000   0.000000  -0.000000   0.000000
    33  H   -0.000046  -0.000015   0.000002  -0.000000   0.000000  -0.000000
    34  H   -0.000000   0.000000   0.000000   0.000000  -0.000000   0.000000
    35  H    0.000000   0.000001   0.000000  -0.000000   0.000000  -0.000000
    36  H    0.000000   0.000000  -0.000000   0.000000  -0.000000   0.000000
              13         14         15         16         17         18
     1  C   -0.076272  -0.013838   0.000654   0.000000  -0.000341   0.008612
     2  C    0.295034  -0.083910   0.011400   0.001204   0.014768  -0.090628
     3  C   -0.111945   0.004015  -0.000308   0.000062   0.000621  -0.009173
     4  C    0.025674   0.000202   0.000043  -0.000001   0.000010  -0.000590
     5  O    0.005049  -0.000055   0.000001   0.000000  -0.000001  -0.000006
     6  O   -0.000034  -0.000002   0.000000  -0.000000  -0.000000   0.000000
     7  C   -0.024104  -0.000609  -0.000569  -0.000034  -0.000011   0.000465
     8  C    0.000185   0.001335   0.000111  -0.000084   0.000006  -0.001028
     9  C   -0.000376   0.000125  -0.000060  -0.000016   0.000001  -0.000010
    10  C   -0.000024  -0.000036  -0.000012   0.000001   0.000000  -0.000000
    11  C   -0.000020   0.000033  -0.000000   0.000000  -0.000000  -0.000000
    12  C    0.000358  -0.000935  -0.000006   0.000000  -0.000000   0.000003
    13  C    5.478175   0.211938   0.124486  -0.198799   0.117276   0.232502
    14  C    0.211938   5.184928   0.241405   0.108725  -0.135752   0.064660
    15  C    0.124486   0.241405   5.151429   0.166695   0.064433  -0.135359
    16  C   -0.198799   0.108725   0.166695   5.865060   0.171852   0.110554
    17  C    0.117276  -0.135752   0.064433   0.171852   5.162856   0.221480
    18  C    0.232502   0.064660  -0.135359   0.110554   0.221480   5.194798
    19  S    0.000508   0.002242  -0.047074   0.232128  -0.046423   0.002231
    20  O   -0.000027   0.001290   0.008938  -0.064722   0.003618   0.000005
    21  O   -0.000025   0.000002   0.003770  -0.064871   0.008957   0.001261
    22  C   -0.000071  -0.000321  -0.004013  -0.086957  -0.003647  -0.000292
    23  H   -0.009035  -0.000485   0.000010  -0.000012  -0.000013   0.003730
    24  H    0.000005   0.000001   0.000000  -0.000000   0.000000  -0.000001
    25  H    0.001992   0.001782  -0.001732   0.000343  -0.000024   0.000762
    26  H    0.000016   0.000046   0.000036  -0.000005  -0.000000  -0.000002
    27  H    0.000000  -0.000001   0.000000  -0.000000   0.000000  -0.000000
    28  H    0.000001  -0.000001  -0.000000   0.000000  -0.000000   0.000000
    29  H   -0.000022  -0.000029   0.000002  -0.000000  -0.000000   0.000000
    30  H   -0.070840   0.451431  -0.067911   0.017243  -0.002019   0.014731
    31  H    0.015719  -0.053196   0.446151  -0.091372   0.012401  -0.001750
    32  H    0.015682  -0.001773   0.012337  -0.089784   0.444082  -0.052444
    33  H   -0.076339   0.016228  -0.002221   0.017494  -0.070041   0.452408
    34  H    0.000002  -0.000001  -0.000054   0.006775  -0.000065  -0.000002
    35  H    0.000008   0.000110   0.002800   0.001111  -0.000387   0.000003
    36  H    0.000003   0.000009  -0.000415   0.001251   0.002689   0.000118
              19         20         21         22         23         24
     1  C   -0.000000  -0.000000   0.000000  -0.000000   0.015638   0.011176
     2  C    0.000005   0.000000   0.000000  -0.000000  -0.059088   0.000186
     3  C   -0.000000  -0.000000   0.000000   0.000000   0.433320  -0.000322
     4  C    0.000000  -0.000000  -0.000000  -0.000000  -0.004254  -0.012978
     5  O    0.000000   0.000000   0.000000  -0.000000  -0.023583  -0.000042
     6  O   -0.000000   0.000000  -0.000000  -0.000000  -0.000135   0.322445
     7  C   -0.000000   0.000000   0.000000  -0.000000  -0.000106  -0.000552
     8  C   -0.000000  -0.000000  -0.000000  -0.000000   0.000001   0.000028
     9  C    0.000000   0.000000   0.000000  -0.000000  -0.000000  -0.000001
    10  C   -0.000000  -0.000000  -0.000000   0.000000   0.000000   0.000000
    11  C    0.000000   0.000000   0.000000  -0.000000  -0.000000   0.000004
    12  C    0.000000  -0.000000  -0.000000   0.000000   0.000004   0.000009
    13  C    0.000508  -0.000027  -0.000025  -0.000071  -0.009035   0.000005
    14  C    0.002242   0.001290   0.000002  -0.000321  -0.000485   0.000001
    15  C   -0.047074   0.008938   0.003770  -0.004013   0.000010   0.000000
    16  C    0.232128  -0.064722  -0.064871  -0.086957  -0.000012  -0.000000
    17  C   -0.046423   0.003618   0.008957  -0.003647  -0.000013   0.000000
    18  C    0.002231   0.000005   0.001261  -0.000292   0.003730  -0.000001
    19  S   14.025958   0.397245   0.397688   0.317352  -0.000000   0.000000
    20  O    0.397245   8.235301  -0.034771  -0.046215   0.000000  -0.000000
    21  O    0.397688  -0.034771   8.234590  -0.046177   0.000000  -0.000000
    22  C    0.317352  -0.046215  -0.046177   4.802201  -0.000000   0.000000
    23  H   -0.000000   0.000000   0.000000  -0.000000   0.619038  -0.000091
    24  H    0.000000  -0.000000  -0.000000   0.000000  -0.000091   0.458159
    25  H   -0.000000  -0.000000  -0.000000   0.000004   0.000006  -0.000001
    26  H   -0.000000   0.000000   0.000000  -0.000000  -0.000000   0.000000
    27  H    0.000000  -0.000000  -0.000000   0.000000  -0.000000  -0.000000
    28  H   -0.000000   0.000000   0.000000  -0.000000   0.000000  -0.000001
    29  H   -0.000000  -0.000000  -0.000000   0.000000   0.000002  -0.000103
    30  H   -0.000153  -0.000010   0.000001   0.000010  -0.000017  -0.000000
    31  H   -0.008628   0.016255   0.000305   0.000457   0.000000   0.000000
    32  H   -0.008725   0.000300   0.016414   0.000527   0.000007  -0.000000
    33  H   -0.000154   0.000001  -0.000009   0.000008   0.000204   0.000000
    34  H   -0.007095   0.002639   0.002645   0.359325   0.000000  -0.000000
    35  H   -0.008810   0.002659   0.003127   0.360689   0.000000  -0.000000
    36  H   -0.008821   0.003139   0.002721   0.360456  -0.000000  -0.000000
              25         26         27         28         29         30
     1  C   -0.020812  -0.000427   0.000020  -0.000433  -0.029367   0.000221
     2  C   -0.000542   0.000009  -0.000000   0.000001  -0.000356  -0.020275
     3  C   -0.000036  -0.000000   0.000000  -0.000000   0.000078  -0.000228
     4  C   -0.000457   0.000001   0.000000  -0.000017   0.001583  -0.000127
     5  O   -0.000016  -0.000000   0.000000  -0.000000   0.000033  -0.000012
     6  O    0.000004   0.000000   0.000000  -0.000007   0.009771   0.000001
     7  C   -0.068927   0.016670  -0.001735   0.016362  -0.067326   0.002713
     8  C    0.444193  -0.074937   0.015432  -0.001684   0.016876   0.001823
     9  C   -0.067442   0.446918  -0.075492   0.014971  -0.002325  -0.001207
    10  C    0.015067  -0.078846   0.446356  -0.077981   0.015484   0.000176
    11  C   -0.002074   0.015111  -0.075398   0.445542  -0.073601   0.000012
    12  C    0.015448  -0.001775   0.015041  -0.074190   0.445988   0.000960
    13  C    0.001992   0.000016   0.000000   0.000001  -0.000022  -0.070840
    14  C    0.001782   0.000046  -0.000001  -0.000001  -0.000029   0.451431
    15  C   -0.001732   0.000036   0.000000  -0.000000   0.000002  -0.067911
    16  C    0.000343  -0.000005  -0.000000   0.000000  -0.000000   0.017243
    17  C   -0.000024  -0.000000   0.000000  -0.000000  -0.000000  -0.002019
    18  C    0.000762  -0.000002  -0.000000   0.000000   0.000000   0.014731
    19  S   -0.000000  -0.000000   0.000000  -0.000000  -0.000000  -0.000153
    20  O   -0.000000   0.000000  -0.000000   0.000000  -0.000000  -0.000010
    21  O   -0.000000   0.000000  -0.000000   0.000000  -0.000000   0.000001
    22  C    0.000004  -0.000000   0.000000  -0.000000   0.000000   0.000010
    23  H    0.000006  -0.000000  -0.000000   0.000000   0.000002  -0.000017
    24  H   -0.000001   0.000000  -0.000000  -0.000001  -0.000103  -0.000000
    25  H    0.705616  -0.013561  -0.000281   0.000032  -0.000228  -0.000297
    26  H   -0.013561   0.707850  -0.012941  -0.000306   0.000028  -0.000035
    27  H   -0.000281  -0.012941   0.705195  -0.012894  -0.000273   0.000000
    28  H    0.000032  -0.000306  -0.012894   0.707617  -0.013196  -0.000003
    29  H   -0.000228   0.000028  -0.000273  -0.013196   0.712918   0.000045
    30  H   -0.000297  -0.000035   0.000000  -0.000003   0.000045   0.679798
    31  H   -0.000041   0.000003   0.000000   0.000000  -0.000000  -0.012728
    32  H   -0.000003   0.000000   0.000000  -0.000000   0.000000   0.000030
    33  H    0.000030  -0.000000  -0.000000  -0.000000  -0.000000  -0.000205
    34  H   -0.000000  -0.000000  -0.000000   0.000000  -0.000000  -0.000000
    35  H   -0.000001   0.000002  -0.000000  -0.000000  -0.000000  -0.000006
    36  H    0.000001  -0.000000  -0.000000   0.000000  -0.000000   0.000001
              31         32         33         34         35         36
     1  C    0.000002   0.000002  -0.000223   0.000000   0.000000  -0.000000
     2  C   -0.000324  -0.000372  -0.019799   0.000000  -0.000000  -0.000000
     3  C    0.000000  -0.000007   0.005562  -0.000000   0.000000  -0.000000
     4  C   -0.000001  -0.000000  -0.000027   0.000000  -0.000000   0.000000
     5  O   -0.000000  -0.000000  -0.000095   0.000000   0.000000  -0.000000
     6  O   -0.000000   0.000000   0.000000   0.000000  -0.000000   0.000000
     7  C    0.000044   0.000000  -0.000046  -0.000000   0.000000   0.000000
     8  C    0.000017  -0.000000  -0.000015   0.000000   0.000001   0.000000
     9  C    0.000030  -0.000000   0.000002   0.000000   0.000000  -0.000000
    10  C   -0.000004   0.000000  -0.000000   0.000000  -0.000000   0.000000
    11  C    0.000000  -0.000000   0.000000  -0.000000   0.000000  -0.000000
    12  C   -0.000004   0.000000  -0.000000   0.000000  -0.000000   0.000000
    13  C    0.015719   0.015682  -0.076339   0.000002   0.000008   0.000003
    14  C   -0.053196  -0.001773   0.016228  -0.000001   0.000110   0.000009
    15  C    0.446151   0.012337  -0.002221  -0.000054   0.002800  -0.000415
    16  C   -0.091372  -0.089784   0.017494   0.006775   0.001111   0.001251
    17  C    0.012401   0.444082  -0.070041  -0.000065  -0.000387   0.002689
    18  C   -0.001750  -0.052444   0.452408  -0.000002   0.000003   0.000118
    19  S   -0.008628  -0.008725  -0.000154  -0.007095  -0.008810  -0.008821
    20  O    0.016255   0.000300   0.000001   0.002639   0.002659   0.003139
    21  O    0.000305   0.016414  -0.000009   0.002645   0.003127   0.002721
    22  C    0.000457   0.000527   0.000008   0.359325   0.360689   0.360456
    23  H    0.000000   0.000007   0.000204   0.000000   0.000000  -0.000000
    24  H    0.000000  -0.000000   0.000000  -0.000000  -0.000000  -0.000000
    25  H   -0.000041  -0.000003   0.000030  -0.000000  -0.000001   0.000001
    26  H    0.000003   0.000000  -0.000000  -0.000000   0.000002  -0.000000
    27  H    0.000000   0.000000  -0.000000  -0.000000  -0.000000  -0.000000
    28  H    0.000000  -0.000000  -0.000000   0.000000  -0.000000   0.000000
    29  H   -0.000000   0.000000  -0.000000  -0.000000  -0.000000  -0.000000
    30  H   -0.012728   0.000030  -0.000205  -0.000000  -0.000006   0.000001
    31  H    0.669289  -0.000287   0.000032  -0.000091   0.000498  -0.000049
    32  H   -0.000287   0.668447  -0.012648  -0.000095  -0.000050   0.000474
    33  H    0.000032  -0.012648   0.690003  -0.000000   0.000000  -0.000004
    34  H   -0.000091  -0.000095  -0.000000   0.565300  -0.008360  -0.008400
    35  H    0.000498  -0.000050   0.000000  -0.008360   0.585042  -0.013086
    36  H   -0.000049   0.000474  -0.000004  -0.008400  -0.013086   0.585652
 Mulliken charges:
               1
     1  C   -0.017387
     2  C    0.053106
     3  C    0.056686
     4  C    0.176098
     5  O   -0.224567
     6  O   -0.172816
     7  C    0.018794
     8  C   -0.021656
     9  C   -0.001833
    10  C    0.004066
    11  C    0.007124
    12  C   -0.024864
    13  C    0.043321
    14  C    0.000438
    15  C    0.025036
    16  C   -0.103843
    17  C    0.033675
    18  C   -0.017040
    19  S    0.760528
    20  O   -0.525644
    21  O   -0.525628
    22  C   -0.013333
    23  H    0.024861
    24  H    0.222079
    25  H   -0.008806
    26  H   -0.003856
    27  H   -0.003030
    28  H   -0.003812
    29  H   -0.015980
    30  H    0.006882
    31  H    0.007272
    32  H    0.007886
    33  H   -0.000146
    34  H    0.087478
    35  H    0.074649
    36  H    0.074262
 Sum of Mulliken charges =  -0.00000
 Mulliken charges with hydrogens summed into heavy atoms:
               1
     1  C   -0.017387
     2  C    0.053106
     3  C    0.081546
     4  C    0.176098
     5  O   -0.224567
     6  O    0.049263
     7  C    0.018794
     8  C   -0.030462
     9  C   -0.005689
    10  C    0.001036
    11  C    0.003313
    12  C   -0.040843
    13  C    0.043321
    14  C    0.007320
    15  C    0.032308
    16  C   -0.103843
    17  C    0.041561
    18  C   -0.017186
    19  S    0.760528
    20  O   -0.525644
    21  O   -0.525628
    22  C    0.223056
 Electronic spatial extent (au):  <R**2>=           8983.9298
 Charge=              0.0000 electrons
 Dipole moment (field-independent basis, Debye):
    X=             -6.1195    Y=             -0.2963    Z=              3.7084  Tot=              7.1616
 Quadrupole moment (field-independent basis, Debye-Ang):
   XX=           -149.6903   YY=           -117.2291   ZZ=           -135.1172
   XY=             20.8703   XZ=             20.1274   YZ=              1.2976
 Traceless Quadrupole moment (field-independent basis, Debye-Ang):
   XX=            -15.6781   YY=             16.7831   ZZ=             -1.1050
   XY=             20.8703   XZ=             20.1274   YZ=              1.2976
 Octapole moment (field-independent basis, Debye-Ang**2):
  XXX=           -254.8028  YYY=            -21.5943  ZZZ=              6.5464  XYY=            -34.6586
  XXY=              0.2061  XXZ=             63.1794  XZZ=              1.4514  YZZ=             -7.9934
  YYZ=             12.4809  XYZ=             26.2662
 Hexadecapole moment (field-independent basis, Debye-Ang**3):
 XXXX=          -8897.1795 YYYY=          -2366.4464 ZZZZ=           -508.7552 XXXY=            791.1349
 XXXZ=            413.9048 YYYX=            114.8090 YYYZ=             -0.5527 ZZZX=             47.0313
 ZZZY=             -2.9748 XXYY=          -1647.4096 XXZZ=          -1568.6622 YYZZ=           -520.9795
 XXYZ=             46.8632 YYXZ=             35.8853 ZZXY=             18.1128
 N-N= 1.838170982567D+03 E-N=-6.846928454984D+03  KE= 1.343903256321D+03
 1\1\GINC-CH-GOULDMAC5\FOpt\RB3LYP\def2SVP\C17H14O4S1\MINGYU\10-Mar-202
 2\0\\# opt=loose b3lyp scrf=(solvent=water) def2svp em=gd3bj\\MODEL 1\
 \0,1\C,75.2469752138,14.2812127176,130.7745720888\C,76.0850919432,13.3
 324416118,131.5013322542\C,75.2388871798,12.4270012095,132.0797989246\
 C,73.9632191194,13.8358723642,130.9891022903\O,73.9390227487,12.732040
 8068,131.7625347607\O,72.7976062271,14.3303238056,130.5776402126\C,75.
 6353183962,15.5062476358,130.0586352412\C,76.6878146483,16.3173313302,
 130.5268626731\C,77.0483222252,17.4836122893,129.8501939924\C,76.35985
 07446,17.8730171367,128.6963004435\C,75.3052957054,17.083299191,128.22
 70153014\C,74.948854821,15.911292136,128.8975264622\C,77.5542580373,13
 .2710587296,131.5543621309\C,78.3269022248,13.5356522285,130.406449260
 9\C,79.7159523524,13.4509791673,130.4470221757\C,80.3401055618,13.1001
 378196,131.6473003491\C,79.6004115046,12.8192356211,132.7980685547\C,7
 8.2107099952,12.9115931697,132.7466889911\S,82.1260974962,13.000797072
 ,131.70895486\O,82.6191210399,12.7267798867,130.3453103811\O,82.498684
 1777,12.0894836556,132.808213619\C,82.6593196895,14.6545057024,132.162
 88647\H,75.3940600948,11.5251889131,132.6635582662\H,72.0665631058,13.
 8545387632,131.0036884917\H,77.2210837502,16.0350099295,131.435861695\
 H,77.8684041403,18.0969071432,130.2317875948\H,76.6417906828,18.786953
 3177,128.1682919085\H,74.7594979544,17.3773690783,127.3270451048\H,74.
 1313227629,15.2959964828,128.5177683582\H,77.8306660895,13.7974490984,
 129.4715294312\H,80.3155925974,13.6411195912,129.5557800585\H,80.11048
 46563,12.5334868057,133.7190171245\H,77.6228573738,12.7155187485,133.6
 452264395\H,83.7563186938,14.6088671741,132.2067860488\H,82.326786086,
 15.3580674151,131.3897279655\H,82.2377509598,14.9046122519,133.1441600
 754\\Version=EM64M-G16RevA.03\State=1-A\HF=-1354.5325351\RMSD=3.509e-0
 9\RMSF=1.630e-05\Dipole=-2.3477306,1.3729712,0.7361051\Quadrupole=0.28
 71998,-3.591406,3.3042062,24.4555562,0.7846393,-1.0506386\PG=C01 [X(C1
 7H14O4S1)]\\@


 GOOD SENSE ABOUT TRIVIALITIES IS BETTER THAN NONSENSE
 ABOUT THINGS THAT MATTER

                                       -- MAX BEERBOHM
 Job cpu time:       0 days  2 hours 34 minutes 35.1 seconds.
 Elapsed time:       0 days  2 hours 38 minutes 11.0 seconds.
 File lengths (MBytes):  RWF=    237 Int=      0 D2E=      0 Chk=     15 Scr=      1
 Normal termination of Gaussian 16 at Thu Mar 10 20:05:10 2022.
